 Entering Link 1 = C:\G09W\l1.exe PID=      2796.
  
 Copyright (c) 1988,1990,1992,1993,1995,1998,2003,2009,2013,
            Gaussian, Inc.  All Rights Reserved.
  
 This is part of the Gaussian(R) 09 program.  It is based on
 the Gaussian(R) 03 system (copyright 2003, Gaussian, Inc.),
 the Gaussian(R) 98 system (copyright 1998, Gaussian, Inc.),
 the Gaussian(R) 94 system (copyright 1995, Gaussian, Inc.),
 the Gaussian 92(TM) system (copyright 1992, Gaussian, Inc.),
 the Gaussian 90(TM) system (copyright 1990, Gaussian, Inc.),
 the Gaussian 88(TM) system (copyright 1988, Gaussian, Inc.),
 the Gaussian 86(TM) system (copyright 1986, Carnegie Mellon
 University), and the Gaussian 82(TM) system (copyright 1983,
 Carnegie Mellon University). Gaussian is a federally registered
 trademark of Gaussian, Inc.
  
 This software contains proprietary and confidential information,
 including trade secrets, belonging to Gaussian, Inc.
  
 This software is provided under written license and may be
 used, copied, transmitted, or stored only in accord with that
 written license.
  
 The following legend is applicable only to US Government
 contracts under FAR:
  
                    RESTRICTED RIGHTS LEGEND
  
 Use, reproduction and disclosure by the US Government is
 subject to restrictions as set forth in subparagraphs (a)
 and (c) of the Commercial Computer Software - Restricted
 Rights clause in FAR 52.227-19.
  
 Gaussian, Inc.
 340 Quinnipiac St., Bldg. 40, Wallingford CT 06492
  
  
 ---------------------------------------------------------------
 Warning -- This program may not be used in any manner that
 competes with the business of Gaussian, Inc. or will provide
 assistance to any competitor of Gaussian, Inc.  The licensee
 of this program is prohibited from giving any competitor of
 Gaussian, Inc. access to this program.  By using this program,
 the user acknowledges that Gaussian, Inc. is engaged in the
 business of creating and licensing software in the field of
 computational chemistry and represents and warrants to the
 licensee that it is not a competitor of Gaussian, Inc. and that
 it will not use this program in any manner prohibited above.
 ---------------------------------------------------------------
  

 Cite this work as:
 Gaussian 09, Revision D.01,
 M. J. Frisch, G. W. Trucks, H. B. Schlegel, G. E. Scuseria, 
 M. A. Robb, J. R. Cheeseman, G. Scalmani, V. Barone, B. Mennucci, 
 G. A. Petersson, H. Nakatsuji, M. Caricato, X. Li, H. P. Hratchian, 
 A. F. Izmaylov, J. Bloino, G. Zheng, J. L. Sonnenberg, M. Hada, 
 M. Ehara, K. Toyota, R. Fukuda, J. Hasegawa, M. Ishida, T. Nakajima, 
 Y. Honda, O. Kitao, H. Nakai, T. Vreven, J. A. Montgomery, Jr., 
 J. E. Peralta, F. Ogliaro, M. Bearpark, J. J. Heyd, E. Brothers, 
 K. N. Kudin, V. N. Staroverov, T. Keith, R. Kobayashi, J. Normand, 
 K. Raghavachari, A. Rendell, J. C. Burant, S. S. Iyengar, J. Tomasi, 
 M. Cossi, N. Rega, J. M. Millam, M. Klene, J. E. Knox, J. B. Cross, 
 V. Bakken, C. Adamo, J. Jaramillo, R. Gomperts, R. E. Stratmann, 
 O. Yazyev, A. J. Austin, R. Cammi, C. Pomelli, J. W. Ochterski, 
 R. L. Martin, K. Morokuma, V. G. Zakrzewski, G. A. Voth, 
 P. Salvador, J. J. Dannenberg, S. Dapprich, A. D. Daniels, 
 O. Farkas, J. B. Foresman, J. V. Ortiz, J. Cioslowski, 
 and D. J. Fox, Gaussian, Inc., Wallingford CT, 2013.
 
 ******************************************
 Gaussian 09:  IA32W-G09RevD.01 24-Apr-2013
                05-Feb-2022 
 ******************************************
 %chk=D:\mindmap\gaussian\calculate\ch3n2_idea\energy.chk
 %nprocshared=4
 Will use up to    4 processors via shared memory.
 %mem=1GB
 -------------------------------------------------------------
 # apfd/6-311+g(2d,p) geom=connectivity pop=full int=ultrafine
 -------------------------------------------------------------
 1/38=1,57=2/1;
 2/12=2,17=6,18=5,40=1/2;
 3/5=4,6=6,7=112,11=2,16=1,25=1,30=1,74=-44,75=-5/1,2,3;
 4//1;
 5/5=2,38=5/2;
 6/7=3,28=1/1;
 99/5=1,9=1/99;
 ----------------------
 Energy Calculation(GC)
 ----------------------
 Symbolic Z-matrix:
 Charge =  0 Multiplicity = 1
 C                    -0.00046  -1.16181   0. 
 H                     0.93021  -1.68978   0. 
 H                    -0.92195  -1.70564   0. 
 N                    -0.00042   0.07092   0. 
 N                    -0.00037   1.40998   0. 
 
                          Input orientation:                          
 ---------------------------------------------------------------------
 Center     Atomic      Atomic             Coordinates (Angstroms)
 Number     Number       Type             X           Y           Z
 ---------------------------------------------------------------------
      1          6           0       -0.000459   -1.161812    0.000000
      2          1           0        0.930212   -1.689781    0.000000
      3          1           0       -0.921954   -1.705638    0.000000
      4          7           0       -0.000416    0.070922    0.000000
      5          7           0       -0.000371    1.409977    0.000000
 ---------------------------------------------------------------------
                    Distance matrix (angstroms):
                    1          2          3          4          5
     1  C    0.000000
     2  H    1.070000   0.000000
     3  H    1.070000   1.852234   0.000000
     4  N    1.232733   1.991517   2.001349   0.000000
     5  N    2.571788   3.236430   3.249057   1.339055   0.000000
 Stoichiometry    CH2N2
 Framework group  CS[SG(CH2N2)]
 Deg. of freedom     7
 Full point group                 CS      NOp   2
 Largest Abelian subgroup         CS      NOp   2
 Largest concise Abelian subgroup C1      NOp   1
                         Standard orientation:                         
 ---------------------------------------------------------------------
 Center     Atomic      Atomic             Coordinates (Angstroms)
 Number     Number       Type             X           Y           Z
 ---------------------------------------------------------------------
      1          6           0        0.007266   -1.161789    0.000000
      2          1           0       -0.920296   -1.695201    0.000000
      3          1           0        0.931931   -1.700207    0.000000
      4          7           0        0.000000    0.070923    0.000000
      5          7           0       -0.007890    1.409954    0.000000
 ---------------------------------------------------------------------
 Rotational constants (GHZ):    292.3427113     10.1797437      9.8371999
 Standard basis: 6-311+G(2d,p) (5D, 7F)
 There are    73 symmetry adapted cartesian basis functions of A'  symmetry.
 There are    26 symmetry adapted cartesian basis functions of A"  symmetry.
 There are    67 symmetry adapted basis functions of A'  symmetry.
 There are    26 symmetry adapted basis functions of A"  symmetry.
    93 basis functions,   142 primitive gaussians,    99 cartesian basis functions
    11 alpha electrons       11 beta electrons
       nuclear repulsion energy        58.2515060026 Hartrees.
 NAtoms=    5 NActive=    5 NUniq=    5 SFac= 1.00D+00 NAtFMM=   60 NAOKFM=F Big=F
 Integral buffers will be    262144 words long.
 Raffenetti 2 integral format.
 Two-electron integral symmetry is turned on.
 R6APFD:  NTU= -4 IXU= 1 FactS= 1.050
 Nuclear repulsion after empirical dispersion term =       58.2512169489 Hartrees.
 One-electron integrals computed using PRISM.
 NBasis=    93 RedAO= T EigKep=  2.32D-04  NBF=    67    26
 NBsUse=    93 1.00D-06 EigRej= -1.00D+00 NBFU=    67    26
 ExpMin= 4.38D-02 ExpMax= 6.29D+03 ExpMxC= 9.49D+02 IAcc=3 IRadAn=         5 AccDes= 0.00D+00
 Harris functional with IExCor= 3731 and IRadAn=       5 diagonalized for initial guess.
 HarFok:  IExCor= 3731 AccDes= 0.00D+00 IRadAn=         5 IDoV= 1 UseB2=F ITyADJ=14
 ICtDFT=  3500011 ScaDFX=  1.000000  1.000000  1.000000  1.000000
 FoFCou: FMM=F IPFlag=           0 FMFlag=      100000 FMFlg1=           0
         NFxFlg=           0 DoJE=T BraDBF=F KetDBF=T FulRan=T
         wScrn=  0.000000 ICntrl=     500 IOpCl=  0 I1Cent=   200000004 NGrid=           0
         NMat0=    1 NMatS0=      1 NMatT0=    0 NMatD0=    1 NMtDS0=    0 NMtDT0=    0
 Petite list used in FoFCou.
 Initial guess orbital symmetries:
       Occupied  (A') (A') (A') (A') (A') (A') (A') (A") (A') (A')
                 (A")
       Virtual   (A') (A') (A") (A') (A') (A") (A') (A') (A') (A")
                 (A') (A') (A') (A") (A') (A') (A') (A') (A') (A')
                 (A") (A") (A') (A') (A') (A') (A") (A') (A") (A')
                 (A') (A") (A") (A') (A') (A') (A') (A") (A') (A')
                 (A') (A") (A') (A') (A") (A") (A") (A') (A') (A')
                 (A') (A') (A') (A') (A") (A') (A") (A') (A") (A')
                 (A') (A") (A') (A') (A") (A') (A') (A') (A") (A')
                 (A") (A') (A') (A") (A') (A") (A') (A') (A') (A')
                 (A') (A')
 The electronic state of the initial guess is 1-A'.
 Keep R1 ints in memory in symmetry-blocked form, NReq=14584611.
 Requested convergence on RMS density matrix=1.00D-08 within 128 cycles.
 Requested convergence on MAX density matrix=1.00D-06.
 Requested convergence on             energy=1.00D-06.
 No special actions if energy rises.
 EnCoef did     5 forward-backward iterations
 SCF Done:  E(RAPFD) =  -148.601439100     A.U. after   12 cycles
            NFock= 12  Conv=0.58D-08     -V/T= 2.0061

 **********************************************************************

            Population analysis using the SCF density.

 **********************************************************************

 Orbital symmetries:
       Occupied  (A') (A') (A') (A') (A') (A') (A') (A') (A") (A')
                 (A")
       Virtual   (A') (A") (A') (A') (A') (A") (A') (A') (A') (A")
                 (A') (A') (A') (A") (A') (A') (A') (A') (A') (A')
                 (A") (A") (A') (A') (A') (A') (A') (A") (A") (A')
                 (A') (A") (A") (A') (A') (A') (A') (A") (A') (A')
                 (A') (A") (A') (A') (A") (A") (A') (A") (A') (A')
                 (A') (A') (A') (A') (A") (A') (A") (A') (A") (A')
                 (A') (A") (A') (A") (A') (A') (A') (A') (A") (A')
                 (A") (A') (A') (A") (A') (A") (A') (A') (A') (A')
                 (A') (A')
 The electronic state is 1-A'.
 Alpha  occ. eigenvalues --  -14.48851 -14.43649 -10.25582  -1.03921  -0.86007
 Alpha  occ. eigenvalues --   -0.60359  -0.53236  -0.45970  -0.45156  -0.36298
 Alpha  occ. eigenvalues --   -0.24777
 Alpha virt. eigenvalues --   -0.09679  -0.01934   0.00849   0.04808   0.04824
 Alpha virt. eigenvalues --    0.07657   0.10370   0.13860   0.14364   0.15337
 Alpha virt. eigenvalues --    0.17552   0.21399   0.21664   0.22340   0.22844
 Alpha virt. eigenvalues --    0.23338   0.28965   0.35665   0.50297   0.51267
 Alpha virt. eigenvalues --    0.53852   0.55047   0.65864   0.66132   0.75097
 Alpha virt. eigenvalues --    0.77118   0.77479   0.78177   0.80882   0.84157
 Alpha virt. eigenvalues --    0.85537   0.86649   0.89798   0.97373   1.00432
 Alpha virt. eigenvalues --    1.01126   1.12700   1.21230   1.23672   1.25609
 Alpha virt. eigenvalues --    1.30405   1.32019   1.39041   1.65994   1.67607
 Alpha virt. eigenvalues --    1.77455   1.89297   1.89348   2.06233   2.10247
 Alpha virt. eigenvalues --    2.32713   2.34033   2.50065   2.63495   2.80108
 Alpha virt. eigenvalues --    2.82951   3.19862   3.23242   3.35927   3.41582
 Alpha virt. eigenvalues --    3.50707   3.83796   3.86944   3.92581   3.92706
 Alpha virt. eigenvalues --    3.98626   4.11809   4.44682   4.67549   4.68452
 Alpha virt. eigenvalues --    4.79411   4.81364   4.85584   4.91142   4.91431
 Alpha virt. eigenvalues --    5.09288   5.23535   5.37491   5.56358  24.26526
 Alpha virt. eigenvalues --   35.49826  35.57910
     Molecular Orbital Coefficients:
                           1         2         3         4         5
                           O         O         O         O         O
     Eigenvalues --   -14.48851 -14.43649 -10.25582  -1.03921  -0.86007
   1 1   C  1S         -0.00002   0.00005   0.56314  -0.05061   0.07323
   2        2S          0.00022  -0.00025   0.46284  -0.07758   0.11447
   3        2PX         0.00000   0.00000   0.00000  -0.00047   0.00059
   4        2PY         0.00046  -0.00017   0.00065   0.06308  -0.06323
   5        2PZ         0.00000   0.00000   0.00000   0.00000   0.00000
   6        3S         -0.00103   0.00331   0.02361   0.18652  -0.30905
   7        3PX         0.00002  -0.00002  -0.00006  -0.00055   0.00079
   8        3PY        -0.00359   0.00359   0.00592   0.07447  -0.09219
   9        3PZ         0.00000   0.00000   0.00000   0.00000   0.00000
  10        4S          0.00447   0.01164   0.01388   0.03605  -0.18340
  11        4PX        -0.00005  -0.00003  -0.00010   0.00018   0.00021
  12        4PY        -0.00005   0.00437   0.00608   0.00522  -0.03046
  13        4PZ         0.00000   0.00000   0.00000   0.00000   0.00000
  14        5S         -0.00137  -0.00063  -0.00373   0.03736  -0.01046
  15        5PX         0.00000   0.00000  -0.00001  -0.00007  -0.00004
  16        5PY        -0.00100  -0.00101  -0.00112   0.01893   0.00535
  17        5PZ         0.00000   0.00000   0.00000   0.00000   0.00000
  18        6D 0        0.00030  -0.00009  -0.00128  -0.00750   0.00932
  19        6D+1        0.00000   0.00000   0.00000   0.00000   0.00000
  20        6D-1        0.00000   0.00000   0.00000   0.00000   0.00000
  21        6D+2        0.00068  -0.00031  -0.00085  -0.00986   0.01028
  22        6D-2        0.00001   0.00000  -0.00002  -0.00012   0.00015
  23        7D 0       -0.00007  -0.00044  -0.00263  -0.00338   0.00644
  24        7D+1        0.00000   0.00000   0.00000   0.00000   0.00000
  25        7D-1        0.00000   0.00000   0.00000   0.00000   0.00000
  26        7D+2        0.00241  -0.00049  -0.00015  -0.00994   0.00539
  27        7D-2        0.00002   0.00001  -0.00008  -0.00024   0.00014
  28 2   H  1S         -0.00011   0.00001   0.00027   0.01685  -0.03701
  29        2S         -0.00230  -0.00015  -0.00506   0.02253  -0.04077
  30        3S          0.00104   0.00022   0.00206  -0.00664   0.00109
  31        4PX        -0.00037   0.00019  -0.00156   0.00279  -0.00675
  32        4PY        -0.00057   0.00001  -0.00127   0.00367  -0.00470
  33        4PZ         0.00000   0.00000   0.00000   0.00000   0.00000
  34 3   H  1S         -0.00011   0.00002   0.00027   0.01655  -0.03664
  35        2S         -0.00227  -0.00013  -0.00508   0.02195  -0.04029
  36        3S          0.00108   0.00022   0.00216  -0.00678   0.00114
  37        4PX         0.00036  -0.00020   0.00157  -0.00268   0.00665
  38        4PY        -0.00059   0.00000  -0.00127   0.00369  -0.00464
  39        4PZ         0.00000   0.00000   0.00000   0.00000   0.00000
  40 4   N  1S          0.55765  -0.00168  -0.00015  -0.10547   0.01261
  41        2S          0.46579  -0.00143  -0.00008  -0.16728   0.02025
  42        2PX         0.00000   0.00000   0.00000   0.00001  -0.00094
  43        2PY         0.00003   0.00019  -0.00071  -0.00714   0.17093
  44        2PZ         0.00000   0.00000   0.00000   0.00000   0.00000
  45        3S          0.01416   0.00155   0.00277   0.46325  -0.06164
  46        3PX         0.00001   0.00000   0.00000  -0.00001  -0.00137
  47        3PY        -0.00133   0.00015   0.00264  -0.00251   0.24802
  48        3PZ         0.00000   0.00000   0.00000   0.00000   0.00000
  49        4S         -0.00007  -0.00833  -0.02447   0.28851  -0.00113
  50        4PX        -0.00001  -0.00006  -0.00002   0.00009  -0.00020
  51        4PY         0.00449   0.01004   0.01202  -0.02196   0.04049
  52        4PZ         0.00000   0.00000   0.00000   0.00000   0.00000
  53        5S          0.01488  -0.00548   0.00955  -0.15641   0.03113
  54        5PX        -0.00003   0.00000   0.00000   0.00017   0.00017
  55        5PY         0.00761   0.00111   0.00214  -0.04881  -0.02379
  56        5PZ         0.00000   0.00000   0.00000   0.00000   0.00000
  57        6D 0       -0.00031  -0.00019  -0.00025  -0.00676   0.00108
  58        6D+1        0.00000   0.00000   0.00000   0.00000   0.00000
  59        6D-1        0.00000   0.00000   0.00000   0.00000   0.00000
  60        6D+2       -0.00037  -0.00031  -0.00026  -0.01146   0.00178
  61        6D-2        0.00000   0.00000   0.00000  -0.00013   0.00001
  62        7D 0       -0.00083   0.00190   0.00405  -0.01353  -0.00776
  63        7D+1        0.00000   0.00000   0.00000   0.00000   0.00000
  64        7D-1        0.00000   0.00000   0.00000   0.00000   0.00000
  65        7D+2       -0.00211   0.00322   0.00590  -0.01824  -0.01178
  66        7D-2       -0.00003   0.00004   0.00003  -0.00025  -0.00014
  67 5   N  1S          0.00166   0.55772   0.00000  -0.05401  -0.07861
  68        2S          0.00144   0.46607  -0.00024  -0.08527  -0.12477
  69        2PX         0.00000   0.00001   0.00000   0.00033   0.00035
  70        2PY        -0.00043  -0.00162   0.00024  -0.05628  -0.05625
  71        2PZ         0.00000   0.00000   0.00000   0.00000   0.00000
  72        3S          0.00032   0.01381   0.00201   0.23438   0.35542
  73        3PX        -0.00001   0.00001   0.00002   0.00049   0.00052
  74        3PY         0.00144  -0.00116  -0.00237  -0.08429  -0.08495
  75        3PZ         0.00000   0.00000   0.00000   0.00000   0.00000
  76        4S         -0.00621  -0.01160  -0.00068   0.14670   0.26559
  77        4PX        -0.00003  -0.00002  -0.00001   0.00023   0.00029
  78        4PY         0.00363   0.00349   0.00025  -0.03619  -0.04831
  79        4PZ         0.00000   0.00000   0.00000   0.00000   0.00000
  80        5S         -0.01423   0.00600  -0.00635   0.10046  -0.00913
  81        5PX        -0.00002   0.00001  -0.00001   0.00017  -0.00009
  82        5PY         0.00327  -0.00255   0.00189  -0.02328   0.01317
  83        5PZ         0.00000   0.00000   0.00000   0.00000   0.00000
  84        6D 0       -0.00003  -0.00027  -0.00010  -0.00457  -0.00411
  85        6D+1        0.00000   0.00000   0.00000   0.00000   0.00000
  86        6D-1        0.00000   0.00000   0.00000   0.00000   0.00000
  87        6D+2       -0.00007  -0.00038  -0.00021  -0.00682  -0.00549
  88        6D-2        0.00000   0.00000   0.00000  -0.00008  -0.00006
  89        7D 0        0.00080   0.00022  -0.00042  -0.00910  -0.00797
  90        7D+1        0.00000   0.00000   0.00000   0.00000   0.00000
  91        7D-1        0.00000   0.00000   0.00000   0.00000   0.00000
  92        7D+2        0.00153   0.00028  -0.00052  -0.01261  -0.00962
  93        7D-2        0.00002   0.00000  -0.00001  -0.00016  -0.00011
                           6         7         8         9        10
                           O         O         O         O         O
     Eigenvalues --    -0.60359  -0.53236  -0.45970  -0.45156  -0.36298
   1 1   C  1S         -0.06329  -0.00005  -0.00716   0.00000  -0.00007
   2        2S         -0.10024  -0.00007  -0.01188   0.00000  -0.00010
   3        2PX         0.00113   0.18663  -0.00014   0.00000  -0.09731
   4        2PY        -0.15739   0.00092   0.08532   0.00000  -0.00085
   5        2PZ         0.00000   0.00000   0.00000   0.12060   0.00000
   6        3S          0.25825   0.00033   0.04552   0.00000   0.00030
   7        3PX         0.00149   0.26072  -0.00014   0.00000  -0.12255
   8        3PY        -0.21172   0.00147   0.12181   0.00000  -0.00105
   9        3PZ         0.00000   0.00000   0.00000   0.19028   0.00000
  10        4S          0.23813  -0.00167   0.01305   0.00000  -0.00152
  11        4PX         0.00077   0.12092  -0.00025   0.00000  -0.11338
  12        4PY        -0.09318   0.00065   0.05341   0.00000  -0.00095
  13        4PZ         0.00000   0.00000   0.00000   0.12095   0.00000
  14        5S          0.02804  -0.00062  -0.00171   0.00000  -0.00040
  15        5PX         0.00012   0.01848  -0.00001   0.00000  -0.01918
  16        5PY        -0.00480  -0.00013  -0.00153   0.00000  -0.00026
  17        5PZ         0.00000   0.00000   0.00000   0.01486   0.00000
  18        6D 0       -0.00161   0.00001  -0.00248   0.00000   0.00001
  19        6D+1        0.00000   0.00000   0.00000  -0.00010   0.00000
  20        6D-1        0.00000   0.00000   0.00000   0.01622   0.00000
  21        6D+2        0.01523  -0.00027  -0.00830   0.00000   0.00002
  22        6D-2        0.00001   0.00124  -0.00001   0.00000   0.01826
  23        7D 0        0.00059   0.00030  -0.00244   0.00000   0.00031
  24        7D+1        0.00000   0.00000   0.00000  -0.00024   0.00000
  25        7D-1        0.00000   0.00000   0.00000   0.02586   0.00000
  26        7D+2        0.00441  -0.00041   0.00136   0.00000  -0.00050
  27        7D-2        0.00016   0.03169   0.00014   0.00000   0.04507
  28 2   H  1S          0.11902  -0.11709  -0.02825   0.00000   0.09631
  29        2S          0.16351  -0.18693  -0.04850   0.00000   0.14223
  30        3S          0.01931  -0.02600  -0.00649   0.00000   0.07393
  31        4PX         0.02029  -0.01421  -0.00475   0.00000   0.00627
  32        4PY         0.00559  -0.01083  -0.00010   0.00000   0.01056
  33        4PZ         0.00000   0.00000   0.00000   0.00886   0.00000
  34 3   H  1S          0.12068   0.11608  -0.02857   0.00000  -0.09534
  35        2S          0.16594   0.18679  -0.04870   0.00000  -0.13941
  36        3S          0.01930   0.02514  -0.00640   0.00000  -0.07383
  37        4PX        -0.02048  -0.01414   0.00478   0.00000   0.00589
  38        4PY         0.00590   0.01109  -0.00019   0.00000  -0.01045
  39        4PZ         0.00000   0.00000   0.00000   0.00892   0.00000
  40 4   N  1S          0.04431  -0.00032   0.03020   0.00000   0.00015
  41        2S          0.07207  -0.00052   0.04893   0.00000   0.00026
  42        2PX        -0.00045   0.14075   0.00167   0.00000   0.17956
  43        2PY         0.06045   0.00071  -0.14573   0.00000   0.00176
  44        2PZ         0.00000   0.00000   0.00000   0.22362   0.00000
  45        3S         -0.21861   0.00164  -0.14443   0.00000  -0.00087
  46        3PX        -0.00068   0.21562   0.00256   0.00000   0.27718
  47        3PY         0.08679   0.00104  -0.21878   0.00000   0.00272
  48        3PZ         0.00000   0.00000   0.00000   0.34856   0.00000
  49        4S         -0.18067   0.00193  -0.23113   0.00000  -0.00015
  50        4PX        -0.00022   0.13326   0.00171   0.00000   0.22202
  51        4PY         0.00804   0.00037  -0.12870   0.00000   0.00142
  52        4PZ         0.00000   0.00000   0.00000   0.23894   0.00000
  53        5S          0.12938  -0.00293   0.12070   0.00000  -0.00180
  54        5PX        -0.00047  -0.00523  -0.00025   0.00000   0.05962
  55        5PY         0.07811  -0.00254   0.06461   0.00000  -0.00155
  56        5PZ         0.00000   0.00000   0.00000  -0.00401   0.00000
  57        6D 0        0.00147   0.00001  -0.00170   0.00000   0.00000
  58        6D+1        0.00000   0.00000   0.00000   0.00002   0.00000
  59        6D-1        0.00000   0.00000   0.00000  -0.00361   0.00000
  60        6D+2        0.00267   0.00007  -0.00290   0.00000  -0.00007
  61        6D-2        0.00004  -0.00653  -0.00005   0.00000   0.00643
  62        7D 0       -0.00325   0.00001   0.00685   0.00000  -0.00012
  63        7D+1        0.00000   0.00000   0.00000   0.00003   0.00000
  64        7D-1        0.00000   0.00000   0.00000  -0.00698   0.00000
  65        7D+2       -0.00442   0.00009   0.00729   0.00000  -0.00047
  66        7D-2        0.00000  -0.00759   0.00008   0.00000   0.03817
  67 5   N  1S         -0.03696   0.00031  -0.07497   0.00000   0.00007
  68        2S         -0.05927   0.00051  -0.12134   0.00000   0.00012
  69        2PX        -0.00011   0.04676  -0.00073   0.00000   0.16583
  70        2PY         0.01635  -0.00009   0.18401   0.00000   0.00044
  71        2PZ         0.00000   0.00000   0.00000   0.11217   0.00000
  72        3S          0.17372  -0.00150   0.35625   0.00000  -0.00031
  73        3PX        -0.00016   0.07440  -0.00100   0.00000   0.25347
  74        3PY         0.02244  -0.00010   0.26618   0.00000   0.00071
  75        3PZ         0.00000   0.00000   0.00000   0.17323   0.00000
  76        4S          0.18345  -0.00146   0.46680   0.00000  -0.00049
  77        4PX        -0.00001   0.04911  -0.00047   0.00000   0.20327
  78        4PY         0.00230  -0.00012   0.14284   0.00000   0.00063
  79        4PZ         0.00000   0.00000   0.00000   0.12426   0.00000
  80        5S         -0.15296   0.00442  -0.09057   0.00000   0.00291
  81        5PX        -0.00030   0.00154  -0.00031   0.00000   0.00847
  82        5PY         0.04623  -0.00116   0.05099   0.00000  -0.00074
  83        5PZ         0.00000   0.00000   0.00000   0.01296   0.00000
  84        6D 0        0.00025  -0.00001   0.00515   0.00000  -0.00002
  85        6D+1        0.00000   0.00000   0.00000   0.00005   0.00000
  86        6D-1        0.00000   0.00000   0.00000  -0.00800   0.00000
  87        6D+2        0.00134   0.00003   0.01090   0.00000   0.00008
  88        6D-2        0.00002  -0.00433   0.00010   0.00000  -0.00911
  89        7D 0        0.00017  -0.00002   0.00560   0.00000   0.00000
  90        7D+1        0.00000   0.00000   0.00000   0.00017   0.00000
  91        7D-1        0.00000   0.00000   0.00000  -0.02951   0.00000
  92        7D+2        0.00231   0.00013   0.01544   0.00000   0.00031
  93        7D-2        0.00004  -0.01620   0.00009   0.00000  -0.02858
                          11        12        13        14        15
                           O         V         V         V         V
     Eigenvalues --    -0.24777  -0.09679  -0.01934   0.00849   0.04808
   1 1   C  1S          0.00000   0.00014   0.00000  -0.04006   0.00232
   2        2S          0.00000   0.00023   0.00000  -0.06690   0.00376
   3        2PX         0.00000  -0.00003   0.00000  -0.00006  -0.06931
   4        2PY         0.00000   0.00011   0.00000  -0.02166   0.01563
   5        2PZ        -0.16562   0.00000   0.14357   0.00000   0.00000
   6        3S          0.00000  -0.00068   0.00000   0.24217  -0.00264
   7        3PX         0.00000  -0.00368   0.00000   0.00038  -0.14457
   8        3PY         0.00000   0.00008   0.00000  -0.10665   0.03107
   9        3PZ        -0.24994   0.00000   0.22447   0.00000   0.00000
  10        4S          0.00000  -0.00035   0.00000  -0.80901  -0.16326
  11        4PX         0.00000  -0.04185   0.00000   0.00278  -0.02286
  12        4PY         0.00000   0.00080   0.00000  -0.70351  -0.05351
  13        4PZ        -0.26820   0.00000   0.41915   0.00000   0.00000
  14        5S          0.00000  -0.00127   0.00000  -3.40950  -0.81912
  15        5PX         0.00000   0.08553   0.00000   0.00004   1.59167
  16        5PY         0.00000   0.00002   0.00000  -0.28823  -0.97095
  17        5PZ        -0.05809   0.00000   0.56955   0.00000   0.00000
  18        6D 0        0.00000  -0.00003   0.00000  -0.00016  -0.00152
  19        6D+1        0.00003   0.00000   0.00009   0.00000   0.00000
  20        6D-1       -0.00468   0.00000  -0.01534   0.00000   0.00000
  21        6D+2        0.00000   0.00009   0.00000  -0.00183  -0.00461
  22        6D-2        0.00000  -0.02220   0.00000  -0.00001   0.00260
  23        7D 0        0.00000  -0.00019   0.00000   0.03731   0.00390
  24        7D+1        0.00000   0.00000   0.00036   0.00000   0.00000
  25        7D-1        0.00544   0.00000  -0.05560   0.00000   0.00000
  26        7D+2        0.00000   0.00030   0.00000   0.06858  -0.02170
  27        7D-2        0.00000  -0.04553   0.00000   0.00105   0.00468
  28 2   H  1S          0.00000  -0.06105   0.00000   0.00212   0.01975
  29        2S          0.00000  -0.12501   0.00000  -0.02200   0.01043
  30        3S          0.00000  -0.19306   0.00000  -0.26669   0.29252
  31        4PX         0.00000  -0.00151   0.00000   0.01679   0.01231
  32        4PY         0.00000   0.00187   0.00000   0.00751   0.00186
  33        4PZ        -0.01529   0.00000   0.02273   0.00000   0.00000
  34 3   H  1S          0.00000   0.06093   0.00000   0.00230  -0.03130
  35        2S          0.00000   0.12434   0.00000  -0.02199   0.05166
  36        3S          0.00000   0.19385   0.00000  -0.26453  -0.54724
  37        4PX         0.00000  -0.00128   0.00000  -0.01701   0.00730
  38        4PY         0.00000  -0.00183   0.00000   0.00755  -0.00836
  39        4PZ        -0.01527   0.00000   0.02282   0.00000   0.00000
  40 4   N  1S          0.00000  -0.00019   0.00000   0.00442  -0.00587
  41        2S          0.00000  -0.00031   0.00000   0.00728  -0.01016
  42        2PX         0.00000  -0.19273   0.00000   0.00002   0.01718
  43        2PY         0.00000  -0.00152   0.00000  -0.00150  -0.01494
  44        2PZ        -0.02464   0.00000  -0.20890   0.00000   0.00000
  45        3S          0.00000   0.00105   0.00000  -0.03048   0.04163
  46        3PX         0.00000  -0.29798   0.00000   0.00009   0.01268
  47        3PY         0.00000  -0.00232   0.00000  -0.01275  -0.01492
  48        3PZ        -0.03843   0.00000  -0.32253   0.00000   0.00000
  49        4S          0.00000   0.00062   0.00000   0.49566   0.04732
  50        4PX         0.00000  -0.30286   0.00000   0.00267   0.10481
  51        4PY         0.00000  -0.00186   0.00000  -0.49010  -0.04189
  52        4PZ        -0.02741   0.00000  -0.37817   0.00000   0.00000
  53        5S          0.00000   0.00556   0.00000  -1.29916   1.01023
  54        5PX         0.00000  -0.20375   0.00000   0.01931  -0.71609
  55        5PY         0.00000   0.00152   0.00000  -3.10697  -0.13775
  56        5PZ         0.03133   0.00000  -0.50363   0.00000   0.00000
  57        6D 0        0.00000   0.00001   0.00000  -0.00255  -0.00108
  58        6D+1       -0.00009   0.00000   0.00001   0.00000   0.00000
  59        6D-1        0.01525   0.00000  -0.00018   0.00000   0.00000
  60        6D+2        0.00000  -0.00012   0.00000  -0.00485  -0.00244
  61        6D-2        0.00000   0.01102   0.00000  -0.00006   0.00102
  62        7D 0        0.00000   0.00005   0.00000  -0.03073  -0.00622
  63        7D+1       -0.00036   0.00000  -0.00001   0.00000   0.00000
  64        7D-1        0.06441   0.00000  -0.00343   0.00000   0.00000
  65        7D+2        0.00000  -0.00043   0.00000  -0.05724  -0.00959
  66        7D-2        0.00000   0.03861   0.00000  -0.00058   0.00320
  67 5   N  1S          0.00000   0.00002   0.00000  -0.01554  -0.00894
  68        2S          0.00000   0.00003   0.00000  -0.02521  -0.01501
  69        2PX         0.00000   0.23384   0.00000   0.00012  -0.04506
  70        2PY         0.00000   0.00167   0.00000  -0.03143   0.00144
  71        2PZ         0.23790   0.00000   0.13482   0.00000   0.00000
  72        3S          0.00000  -0.00012   0.00000   0.07750   0.05468
  73        3PX         0.00000   0.35197   0.00000   0.00014  -0.07012
  74        3PY         0.00000   0.00252   0.00000  -0.04092  -0.00534
  75        3PZ         0.35243   0.00000   0.19891   0.00000   0.00000
  76        4S          0.00000  -0.00020   0.00000   0.29595   0.06460
  77        4PX         0.00000   0.38410   0.00000   0.00067  -0.08561
  78        4PY         0.00000   0.00276   0.00000  -0.14215   0.03626
  79        4PZ         0.33073   0.00000   0.25255   0.00000   0.00000
  80        5S          0.00000  -0.00521   0.00000   4.54034   0.11914
  81        5PX         0.00000   0.20457   0.00000   0.00698   0.20555
  82        5PY         0.00000   0.00277   0.00000  -1.19535  -0.09037
  83        5PZ         0.06640   0.00000   0.27152   0.00000   0.00000
  84        6D 0        0.00000   0.00000   0.00000  -0.00016  -0.00056
  85        6D+1        0.00003   0.00000  -0.00003   0.00000   0.00000
  86        6D-1       -0.00519   0.00000   0.00549   0.00000   0.00000
  87        6D+2        0.00000  -0.00001   0.00000   0.00027  -0.00055
  88        6D-2        0.00000   0.00169   0.00000   0.00000   0.00001
  89        7D 0        0.00000   0.00000   0.00000  -0.00100   0.00052
  90        7D+1        0.00006   0.00000  -0.00009   0.00000   0.00000
  91        7D-1       -0.01025   0.00000   0.01590   0.00000   0.00000
  92        7D+2        0.00000  -0.00010   0.00000  -0.00287  -0.00031
  93        7D-2        0.00000   0.00754   0.00000  -0.00003   0.00024
                          16        17        18        19        20
                           V         V         V         V         V
     Eigenvalues --     0.04824   0.07657   0.10370   0.13860   0.14364
   1 1   C  1S          0.00417   0.00000   0.01062  -0.04333   0.00210
   2        2S          0.00675   0.00000   0.01766  -0.06959   0.00339
   3        2PX         0.03811   0.00000  -0.00083   0.00217   0.06258
   4        2PY         0.02806   0.00000  -0.06084  -0.05820   0.00293
   5        2PZ         0.00000  -0.14498   0.00000   0.00000   0.00000
   6        3S         -0.00455   0.00000  -0.05040   0.15643  -0.00731
   7        3PX         0.07980   0.00000  -0.00130   0.00255   0.07194
   8        3PY         0.05719   0.00000  -0.09453  -0.08772   0.00426
   9        3PZ         0.00000  -0.21209   0.00000   0.00000   0.00000
  10        4S         -0.27978   0.00000  -0.51055   0.82528  -0.05388
  11        4PX         0.01242   0.00000  -0.00276   0.01658   0.49595
  12        4PY        -0.08262   0.00000  -0.61937  -1.16801   0.05013
  13        4PZ         0.00000  -0.50165   0.00000   0.00000   0.00000
  14        5S         -1.44499   0.00000  -1.41973   1.02338  -0.06616
  15        5PX        -0.88547   0.00000   0.00297  -0.01965  -0.29410
  16        5PY        -1.73249   0.00000  -0.87368  -0.66540   0.01903
  17        5PZ         0.00000   1.44411   0.00000   0.00000   0.00000
  18        6D 0       -0.00263   0.00000  -0.00689   0.01453  -0.00071
  19        6D+1        0.00000  -0.00002   0.00000   0.00000   0.00000
  20        6D-1        0.00000   0.00293   0.00000   0.00000   0.00000
  21        6D+2       -0.00828   0.00000  -0.00853  -0.01351   0.00067
  22        6D-2       -0.00157   0.00000  -0.00011   0.00010   0.00286
  23        7D 0        0.00630   0.00000  -0.00742   0.07795  -0.00310
  24        7D+1        0.00000   0.00009   0.00000   0.00000   0.00000
  25        7D-1        0.00000  -0.00204   0.00000   0.00000   0.00000
  26        7D+2       -0.04132   0.00000  -0.00118   0.03597  -0.00167
  27        7D-2       -0.00225   0.00000  -0.00047   0.00399   0.05734
  28 2   H  1S         -0.02509   0.00000   0.00927  -0.08422   0.01188
  29        2S          0.06635   0.00000  -0.03265  -0.14275   0.01226
  30        3S         -0.46108   0.00000   0.19466  -2.55464   0.84440
  31        4PX        -0.00097   0.00000   0.00427   0.02086  -0.01462
  32        4PY        -0.00840   0.00000  -0.01110  -0.00366  -0.01003
  33        4PZ         0.00000  -0.00668   0.00000   0.00000   0.00000
  34 3   H  1S          0.00402   0.00000   0.01000  -0.08476  -0.00401
  35        2S          0.04494   0.00000  -0.03160  -0.14033   0.00288
  36        3S          0.01108   0.00000   0.20741  -2.60465  -0.59563
  37        4PX        -0.00996   0.00000  -0.00422  -0.02250  -0.01266
  38        4PY        -0.00295   0.00000  -0.01127  -0.00254   0.01062
  39        4PZ         0.00000  -0.00678   0.00000   0.00000   0.00000
  40 4   N  1S         -0.01064   0.00000  -0.03522   0.01377  -0.00074
  41        2S         -0.01840   0.00000  -0.05919   0.02397  -0.00127
  42        2PX        -0.00888   0.00000   0.00056  -0.00348  -0.06086
  43        2PY        -0.02690   0.00000   0.03679   0.00252  -0.00012
  44        2PZ         0.00000   0.06945   0.00000   0.00000   0.00000
  45        3S          0.07533   0.00000   0.21651  -0.09814   0.00503
  46        3PX        -0.00617   0.00000   0.00087  -0.00447  -0.07287
  47        3PY        -0.02667   0.00000   0.05478   0.00469  -0.00016
  48        3PZ         0.00000   0.08386   0.00000   0.00000   0.00000
  49        4S          0.07320   0.00000   0.24592   0.35153  -0.01038
  50        4PX        -0.05797   0.00000   0.00590  -0.01148  -0.28713
  51        4PY        -0.06863   0.00000  -0.51068  -0.42761   0.01275
  52        4PZ         0.00000   0.30085   0.00000   0.00000   0.00000
  53        5S          1.78347   0.00000   9.83709  -3.55912   0.21762
  54        5PX         0.40551   0.00000  -0.01599   0.03695   0.31239
  55        5PY        -0.23597   0.00000   3.17936  -3.33449   0.16360
  56        5PZ         0.00000  -0.65488   0.00000   0.00000   0.00000
  57        6D 0       -0.00187   0.00000   0.00375   0.00123  -0.00004
  58        6D+1        0.00000  -0.00003   0.00000   0.00000   0.00000
  59        6D-1        0.00000   0.00443   0.00000   0.00000   0.00000
  60        6D+2       -0.00428   0.00000   0.00749  -0.00348   0.00031
  61        6D-2       -0.00065   0.00000   0.00016  -0.00042  -0.00892
  62        7D 0       -0.01055   0.00000   0.03954   0.01518  -0.00079
  63        7D+1        0.00000  -0.00005   0.00000   0.00000   0.00000
  64        7D-1        0.00000   0.00788   0.00000   0.00000   0.00000
  65        7D+2       -0.01601   0.00000   0.06805  -0.02876   0.00139
  66        7D-2       -0.00165   0.00000   0.00070   0.00032   0.01454
  67 5   N  1S         -0.01572   0.00000   0.03796   0.00124   0.00003
  68        2S         -0.02641   0.00000   0.06273   0.00183   0.00006
  69        2PX         0.02510   0.00000  -0.00058  -0.00404  -0.08966
  70        2PY         0.00367   0.00000   0.04988  -0.03984   0.00161
  71        2PZ         0.00000  -0.07870   0.00000   0.00000   0.00000
  72        3S          0.09616   0.00000  -0.22141  -0.00287  -0.00052
  73        3PX         0.03910   0.00000  -0.00086  -0.00401  -0.09015
  74        3PY        -0.00794   0.00000   0.07305  -0.04592   0.00198
  75        3PZ         0.00000  -0.11007   0.00000   0.00000   0.00000
  76        4S          0.11326   0.00000  -0.02198   0.06989  -0.00064
  77        4PX         0.04739   0.00000   0.00094  -0.01608  -0.36548
  78        4PY         0.06654   0.00000  -0.27032  -0.24860   0.00817
  79        4PZ         0.00000  -0.20021   0.00000   0.00000   0.00000
  80        5S          0.20820   0.00000  -7.66649   5.84211  -0.30143
  81        5PX        -0.11523   0.00000  -0.02333   0.05990   1.08392
  82        5PY        -0.16055   0.00000   3.51328  -1.39140   0.08624
  83        5PZ         0.00000   0.28050   0.00000   0.00000   0.00000
  84        6D 0       -0.00100   0.00000  -0.00031   0.00130  -0.00007
  85        6D+1        0.00000   0.00001   0.00000   0.00000   0.00000
  86        6D-1        0.00000  -0.00241   0.00000   0.00000   0.00000
  87        6D+2       -0.00099   0.00000  -0.00190   0.00192  -0.00017
  88        6D-2       -0.00003   0.00000  -0.00006   0.00027   0.00510
  89        7D 0        0.00086   0.00000  -0.03778   0.00434  -0.00041
  90        7D+1        0.00000   0.00000   0.00000   0.00000   0.00000
  91        7D-1        0.00000   0.00023   0.00000   0.00000   0.00000
  92        7D+2       -0.00075   0.00000  -0.06639  -0.00582  -0.00030
  93        7D-2       -0.00017   0.00000  -0.00089   0.00115   0.02485
                          21        22        23        24        25
                           V         V         V         V         V
     Eigenvalues --     0.15337   0.17552   0.21399   0.21664   0.22340
   1 1   C  1S          0.00000   0.04095   0.00043  -0.01371   0.00000
   2        2S          0.00000   0.07014   0.00068  -0.02099   0.00000
   3        2PX         0.00000  -0.00064  -0.02340  -0.00609   0.00000
   4        2PY         0.00000  -0.10662  -0.00006  -0.00949   0.00000
   5        2PZ         0.01929   0.00000   0.00000   0.00000  -0.04518
   6        3S          0.00000  -0.18554  -0.00025  -0.01836   0.00000
   7        3PX         0.00000  -0.00006  -0.05722  -0.00783   0.00000
   8        3PY         0.00000  -0.27262   0.00035  -0.02351   0.00000
   9        3PZ         0.04223   0.00000   0.00000   0.00000  -0.02717
  10        4S          0.00000  -2.79096  -0.03833   2.02364   0.00000
  11        4PX         0.00000  -0.00221  -0.25567  -0.05433   0.00000
  12        4PY         0.00000  -1.36833  -0.00232   0.46694   0.00000
  13        4PZ         0.09098   0.00000   0.00000   0.00000  -0.28507
  14        5S          0.00000  -4.58308  -0.02370   1.57496   0.00000
  15        5PX         0.00000   0.00125  -1.24385  -0.09453   0.00000
  16        5PY         0.00000  -1.21323   0.00008  -0.00963   0.00000
  17        5PZ        -0.77243   0.00000   0.00000   0.00000  -1.47012
  18        6D 0        0.00000   0.00673   0.00011  -0.01032   0.00000
  19        6D+1        0.00000   0.00000   0.00000   0.00000   0.00004
  20        6D-1        0.00009   0.00000   0.00000   0.00000  -0.00610
  21        6D+2        0.00000  -0.00166   0.00022  -0.00408   0.00000
  22        6D-2        0.00000  -0.00002  -0.00485  -0.00056   0.00000
  23        7D 0        0.00000   0.07076   0.00143  -0.10188   0.00000
  24        7D+1       -0.00033   0.00000   0.00000   0.00000  -0.00033
  25        7D-1        0.04051   0.00000   0.00000   0.00000   0.02599
  26        7D+2        0.00000   0.07536   0.00057  -0.05222   0.00000
  27        7D-2        0.00000   0.00183   0.12450   0.00017   0.00000
  28 2   H  1S          0.00000  -0.01015   0.00844   0.01780   0.00000
  29        2S          0.00000   0.04348  -0.15324  -0.14970   0.00000
  30        3S          0.00000  -0.80485   0.29231   0.99171   0.00000
  31        4PX         0.00000   0.00752  -0.01331  -0.00187   0.00000
  32        4PY         0.00000  -0.00740  -0.01326  -0.01657   0.00000
  33        4PZ        -0.00117   0.00000   0.00000   0.00000   0.00273
  34 3   H  1S          0.00000  -0.00913  -0.00883   0.01988   0.00000
  35        2S          0.00000   0.04714   0.15794  -0.13956   0.00000
  36        3S          0.00000  -0.78421  -0.29159   1.14709   0.00000
  37        4PX         0.00000  -0.00810  -0.01341   0.00285   0.00000
  38        4PY         0.00000  -0.00798   0.01416  -0.01769   0.00000
  39        4PZ        -0.00120   0.00000   0.00000   0.00000   0.00253
  40 4   N  1S          0.00000  -0.03673  -0.00031   0.00718   0.00000
  41        2S          0.00000  -0.06052  -0.00052   0.01167   0.00000
  42        2PX         0.00000   0.00027  -0.10089   0.00024   0.00000
  43        2PY         0.00000   0.05346   0.00095  -0.07327   0.00000
  44        2PZ        -0.03585   0.00000   0.00000   0.00000  -0.09691
  45        3S          0.00000   0.13166   0.00201  -0.04455   0.00000
  46        3PX         0.00000   0.00027  -0.11949   0.00111   0.00000
  47        3PY         0.00000   0.07077   0.00086  -0.07901   0.00000
  48        3PZ        -0.03697   0.00000   0.00000   0.00000  -0.10096
  49        4S          0.00000   1.77356   0.00879  -0.37507   0.00000
  50        4PX         0.00000   0.00522  -0.54019  -0.00365   0.00000
  51        4PY         0.00000  -0.52657  -0.00578   0.40282   0.00000
  52        4PZ        -0.16187   0.00000   0.00000   0.00000  -0.50027
  53        5S          0.00000  -4.77651   0.04424  -1.62549   0.00000
  54        5PX         0.00000   0.03991   3.68885   0.08307   0.00000
  55        5PY         0.00000  -7.07588  -0.03694   5.02854   0.00000
  56        5PZ         0.32340   0.00000   0.00000   0.00000   3.74611
  57        6D 0        0.00000   0.01816   0.00003  -0.00159   0.00000
  58        6D+1        0.00004   0.00000   0.00000   0.00000  -0.00002
  59        6D-1       -0.00677   0.00000   0.00000   0.00000   0.00385
  60        6D+2        0.00000   0.02962   0.00002   0.00093   0.00000
  61        6D-2        0.00000   0.00038   0.00225   0.00033   0.00000
  62        7D 0        0.00000  -0.00444   0.00043  -0.02814   0.00000
  63        7D+1       -0.00009   0.00000   0.00000   0.00000  -0.00007
  64        7D-1        0.01520   0.00000   0.00000   0.00000   0.00943
  65        7D+2        0.00000  -0.01444   0.00064  -0.03973   0.00000
  66        7D-2        0.00000   0.00025   0.02479   0.00036   0.00000
  67 5   N  1S          0.00000   0.03393  -0.00014   0.00993   0.00000
  68        2S          0.00000   0.05621  -0.00018   0.01351   0.00000
  69        2PX         0.00000  -0.00162   0.03696  -0.00183   0.00000
  70        2PY         0.00000   0.19115   0.00163  -0.04635   0.00000
  71        2PZ        -0.10820   0.00000   0.00000   0.00000   0.01971
  72        3S          0.00000  -0.16413  -0.00071   0.02802   0.00000
  73        3PX         0.00000  -0.00246   0.02859  -0.00251   0.00000
  74        3PY         0.00000   0.30534   0.00180  -0.04367   0.00000
  75        3PZ        -0.10639   0.00000   0.00000   0.00000   0.00888
  76        4S          0.00000  -0.62417   0.01793  -1.10372   0.00000
  77        4PX         0.00000  -0.00470   0.21824  -0.00794   0.00000
  78        4PY         0.00000   0.50091   0.00182   0.15869   0.00000
  79        4PZ        -0.45072   0.00000   0.00000   0.00000   0.15973
  80        5S          0.00000  12.26635  -0.00961  -2.18827   0.00000
  81        5PX         0.00000   0.02719  -2.14330  -0.02544   0.00000
  82        5PY         0.00000  -3.92168   0.01463  -0.90256   0.00000
  83        5PZ         1.28388   0.00000   0.00000   0.00000  -2.00806
  84        6D 0        0.00000   0.00106  -0.00010   0.00455   0.00000
  85        6D+1       -0.00002   0.00000   0.00000   0.00000   0.00000
  86        6D-1        0.00398   0.00000   0.00000   0.00000  -0.00011
  87        6D+2        0.00000   0.00081  -0.00016   0.00689   0.00000
  88        6D-2        0.00000  -0.00001  -0.00008  -0.00004   0.00000
  89        7D 0        0.00000   0.01195  -0.00054   0.02771   0.00000
  90        7D+1       -0.00016   0.00000   0.00000   0.00000   0.00011
  91        7D-1        0.02628   0.00000   0.00000   0.00000  -0.01894
  92        7D+2        0.00000   0.01598  -0.00081   0.06099   0.00000
  93        7D-2        0.00000   0.00022  -0.01559   0.00053   0.00000
                          26        27        28        29        30
                           V         V         V         V         V
     Eigenvalues --     0.22844   0.23338   0.28965   0.35665   0.50297
   1 1   C  1S          0.00090  -0.00069   0.02094   0.00987   0.04523
   2        2S          0.00172  -0.00526   0.03796   0.01723   0.08050
   3        2PX        -0.18288  -0.01355   0.00158   0.00003  -0.00802
   4        2PY        -0.00560   0.09838   0.09678   0.02689   0.05300
   5        2PZ         0.00000   0.00000   0.00000   0.00000   0.00000
   6        3S         -0.00965   0.11889  -0.08287  -0.03146  -0.19569
   7        3PX        -0.20383  -0.01430   0.00284  -0.00041  -0.03396
   8        3PY        -0.01134   0.17676  -0.14559  -0.16409   0.14920
   9        3PZ         0.00000   0.00000   0.00000   0.00000   0.00000
  10        4S          0.10035  -2.56574  -4.86923  -4.05073  -3.94757
  11        4PX        -1.58827  -0.11299   0.02228   0.01921  -0.14806
  12        4PY         0.00472  -0.19616  -2.19383  -3.85805  -2.28266
  13        4PZ         0.00000   0.00000   0.00000   0.00000   0.00000
  14        5S          0.44350  -6.42360  -2.85511  -0.93807  -1.40051
  15        5PX        -2.41565  -0.17365   0.02919   0.01777   0.07191
  16        5PY         0.21603  -2.40815   0.86247   0.06918  -1.04860
  17        5PZ         0.00000   0.00000   0.00000   0.00000   0.00000
  18        6D 0       -0.00029   0.00716  -0.00017  -0.01210  -0.03408
  19        6D+1        0.00000   0.00000   0.00000   0.00000   0.00000
  20        6D-1        0.00000   0.00000   0.00000   0.00000   0.00000
  21        6D+2       -0.00054   0.00705  -0.01380  -0.03589  -0.01015
  22        6D-2       -0.01164  -0.00072   0.00005  -0.00027  -0.00349
  23        7D 0       -0.00340   0.08879   0.16759   0.13469  -0.10995
  24        7D+1        0.00000   0.00000   0.00000   0.00000   0.00000
  25        7D-1        0.00000   0.00000   0.00000   0.00000   0.00000
  26        7D+2       -0.00270   0.05897   0.21780   0.27876   0.18633
  27        7D-2       -0.01316   0.00046   0.00494   0.00215   0.00934
  28 2   H  1S         -0.02777  -0.01255  -0.01251  -0.02937   0.10134
  29        2S         -0.04366   0.16049  -0.05139  -0.46697   1.06355
  30        3S         -2.99661  -0.59950  -0.70629   0.69892  -2.95942
  31        4PX         0.02262   0.00079  -0.00760  -0.00341  -0.01923
  32        4PY         0.02019   0.02820  -0.02861  -0.04615   0.00618
  33        4PZ         0.00000   0.00000   0.00000   0.00000   0.00000
  34 3   H  1S          0.02934  -0.00959  -0.01233  -0.02702   0.12285
  35        2S          0.03003   0.15880  -0.04229  -0.45626   1.38378
  36        3S          3.00971  -0.13621  -0.78615   0.65390  -3.24770
  37        4PX         0.02260   0.00292   0.00580   0.00143   0.00318
  38        4PY        -0.02391   0.02507  -0.02814  -0.04696  -0.00042
  39        4PZ         0.00000   0.00000   0.00000   0.00000   0.00000
  40 4   N  1S         -0.00458   0.06007  -0.01109   0.01137  -0.01299
  41        2S         -0.00751   0.09869  -0.01546   0.01946  -0.02168
  42        2PX         0.04928   0.00320  -0.00009   0.00088   0.01195
  43        2PY         0.00323  -0.03054  -0.05343  -0.11998  -0.09699
  44        2PZ         0.00000   0.00000   0.00000   0.00000   0.00000
  45        3S          0.01912  -0.24948  -0.07767  -0.09968   0.07624
  46        3PX         0.07491   0.00478  -0.00020   0.00168   0.02148
  47        3PY         0.00237  -0.03357  -0.14220  -0.22485  -0.15279
  48        3PZ         0.00000   0.00000   0.00000   0.00000   0.00000
  49        4S          0.14251  -1.77603   3.07692   2.18351   1.30254
  50        4PX         0.25985   0.02277   0.00942   0.01958   0.03822
  51        4PY         0.07438  -1.21319  -1.78345  -2.69177  -1.98169
  52        4PZ         0.00000   0.00000   0.00000   0.00000   0.00000
  53        5S         -0.36733   2.88759 -26.16902  27.29407   0.02005
  54        5PX         1.17329   0.12318   0.07458  -0.05685   0.11180
  55        5PY         0.16239  -5.44542 -15.77296   9.59130  -5.90361
  56        5PZ         0.00000   0.00000   0.00000   0.00000   0.00000
  57        6D 0        0.00018  -0.00348  -0.00207  -0.00336  -0.00222
  58        6D+1        0.00000   0.00000   0.00000   0.00000   0.00000
  59        6D-1        0.00000   0.00000   0.00000   0.00000   0.00000
  60        6D+2        0.00028  -0.00940  -0.00454  -0.00317  -0.00257
  61        6D-2        0.00814   0.00042  -0.00016   0.00004   0.00193
  62        7D 0       -0.00076   0.01889  -0.08609  -0.01266  -0.00688
  63        7D+1        0.00000   0.00000   0.00000   0.00000   0.00000
  64        7D-1        0.00000   0.00000   0.00000   0.00000   0.00000
  65        7D+2       -0.00392   0.04935  -0.19577  -0.06860   0.04359
  66        7D-2        0.02416   0.00274  -0.00247  -0.00167   0.01047
  67 5   N  1S         -0.00038  -0.00407   0.00070  -0.02617  -0.00486
  68        2S         -0.00048  -0.00735   0.00189  -0.04067  -0.00668
  69        2PX        -0.07832  -0.00466   0.00137   0.00031  -0.00418
  70        2PY         0.00898  -0.13264  -0.08493  -0.03332  -0.01688
  71        2PZ         0.00000   0.00000   0.00000   0.00000   0.00000
  72        3S          0.00054   0.00273  -0.00038   0.05944  -0.03367
  73        3PX        -0.09571  -0.00539   0.00134   0.00087  -0.00565
  74        3PY         0.01582  -0.23239  -0.02042  -0.07856  -0.04357
  75        3PZ         0.00000   0.00000   0.00000   0.00000   0.00000
  76        4S         -0.00816   0.69291   0.11928   1.87919   1.21295
  77        4PX        -0.31160  -0.01522   0.00664   0.00325  -0.00878
  78        4PY         0.06418  -1.06467  -0.67612  -0.61597  -0.77907
  79        4PZ         0.00000   0.00000   0.00000   0.00000   0.00000
  80        5S         -0.31978   7.54968  31.92898 -26.27799   6.55767
  81        5PX         0.34945   0.03152   0.04865  -0.05218  -0.04339
  82        5PY         0.07822  -1.28037  -8.68896   8.06795  -1.06892
  83        5PZ         0.00000   0.00000   0.00000   0.00000   0.00000
  84        6D 0       -0.00065   0.00725   0.00275   0.00578   0.00358
  85        6D+1        0.00000   0.00000   0.00000   0.00000   0.00000
  86        6D-1        0.00000   0.00000   0.00000   0.00000   0.00000
  87        6D+2       -0.00105   0.01269   0.00445   0.01031   0.00759
  88        6D-2       -0.00333  -0.00006   0.00007   0.00009  -0.00063
  89        7D 0        0.00186  -0.03364   0.01577  -0.00653  -0.00649
  90        7D+1        0.00000   0.00000   0.00000   0.00000   0.00000
  91        7D-1        0.00000   0.00000   0.00000   0.00000   0.00000
  92        7D+2        0.00248  -0.05876   0.01869  -0.00170  -0.03888
  93        7D-2        0.00472  -0.00030   0.00037  -0.00018  -0.00900
                          31        32        33        34        35
                           V         V         V         V         V
     Eigenvalues --     0.51267   0.53852   0.55047   0.65864   0.66132
   1 1   C  1S          0.00483   0.00000   0.00000   0.00682   0.00316
   2        2S          0.00867   0.00000   0.00000   0.00413   0.00261
   3        2PX         0.07927   0.00000   0.00000  -0.08991   0.24236
   4        2PY         0.00694   0.00000   0.00000  -0.24632  -0.09153
   5        2PZ         0.00000  -0.23643   0.00092   0.00000   0.00000
   6        3S         -0.02467   0.00000   0.00000   0.25103   0.08749
   7        3PX         0.33166   0.00000   0.00000  -0.26726   0.71826
   8        3PY         0.01321   0.00000   0.00000  -0.19343  -0.06264
   9        3PZ         0.00000  -0.87448   0.00300   0.00000   0.00000
  10        4S         -0.44292   0.00000   0.00000   0.65387   0.32303
  11        4PX         1.69947   0.00000   0.00000   1.56676  -4.17496
  12        4PY        -0.30951   0.00000   0.00000   3.24956   1.27134
  13        4PZ         0.00000   1.83375  -0.00736   0.00000   0.00000
  14        5S         -0.13181   0.00000   0.00000  -0.73397  -0.21759
  15        5PX        -0.55288   0.00000   0.00000   0.54530  -1.47558
  16        5PY        -0.09970   0.00000   0.00000  -0.05377   0.00432
  17        5PZ         0.00000  -0.47841   0.00078   0.00000   0.00000
  18        6D 0       -0.00369   0.00000   0.00000  -0.01052  -0.00405
  19        6D+1        0.00000   0.00012   0.00422   0.00000   0.00000
  20        6D-1        0.00000  -0.01336   0.00007   0.00000   0.00000
  21        6D+2       -0.00117   0.00000   0.00000  -0.02632  -0.01004
  22        6D-2        0.03005   0.00000   0.00000  -0.00320   0.00807
  23        7D 0       -0.01612   0.00000   0.00000  -0.12839  -0.04683
  24        7D+1        0.00000   0.00303   0.88395   0.00000   0.00000
  25        7D-1        0.00000  -0.10304   0.00327   0.00000   0.00000
  26        7D+2        0.02648   0.00000   0.00000  -0.90509  -0.34135
  27        7D-2       -0.05858   0.00000   0.00000  -0.15845   0.41262
  28 2   H  1S          0.10899   0.00000   0.00000  -0.03479   0.05043
  29        2S          1.67448   0.00000   0.00000   0.71200  -0.48091
  30        3S         -1.56107   0.00000   0.00000   1.36921  -2.66477
  31        4PX         0.07040   0.00000   0.00000   0.10614  -0.07629
  32        4PY        -0.03069   0.00000   0.00000   0.05036  -0.02675
  33        4PZ         0.00000   0.00236  -0.03849   0.00000   0.00000
  34 3   H  1S         -0.08618   0.00000   0.00000   0.00567  -0.05944
  35        2S         -1.44297   0.00000   0.00000   0.19594   0.83004
  36        3S          0.89840   0.00000   0.00000  -0.71004   2.94021
  37        4PX         0.07423   0.00000   0.00000  -0.02833  -0.12521
  38        4PY         0.02834   0.00000   0.00000   0.02320   0.05309
  39        4PZ         0.00000   0.00347   0.03793   0.00000   0.00000
  40 4   N  1S         -0.00164   0.00000   0.00000  -0.01291  -0.00476
  41        2S         -0.00271   0.00000   0.00000  -0.02093  -0.00780
  42        2PX        -0.10468   0.00000   0.00000   0.00215  -0.00376
  43        2PY        -0.00977   0.00000   0.00000  -0.21423  -0.08030
  44        2PZ         0.00000   0.03768  -0.00005   0.00000   0.00000
  45        3S          0.00716   0.00000   0.00000   0.14166   0.05736
  46        3PX        -0.18491   0.00000   0.00000   0.02455  -0.06590
  47        3PY        -0.01554   0.00000   0.00000  -0.34616  -0.13184
  48        3PZ         0.00000   0.10129   0.00012   0.00000   0.00000
  49        4S          0.20660   0.00000   0.00000  -4.39068  -1.73178
  50        4PX        -0.31905   0.00000   0.00000  -0.15278   0.37587
  51        4PY        -0.23880   0.00000   0.00000   0.44851   0.18898
  52        4PZ         0.00000  -0.27457   0.00194   0.00000   0.00000
  53        5S          0.22024   0.00000   0.00000 -10.53227  -4.00553
  54        5PX        -0.88315   0.00000   0.00000  -0.71880   2.00795
  55        5PY        -0.52428   0.00000   0.00000  -5.65600  -2.06289
  56        5PZ         0.00000  -0.75261   0.00454   0.00000   0.00000
  57        6D 0       -0.00031   0.00000   0.00000   0.00662   0.00251
  58        6D+1        0.00000  -0.00001   0.01114   0.00000   0.00000
  59        6D-1        0.00000   0.00721   0.00011   0.00000   0.00000
  60        6D+2        0.00010   0.00000   0.00000   0.00203   0.00073
  61        6D-2       -0.01975   0.00000   0.00000   0.00003  -0.00098
  62        7D 0       -0.00316   0.00000   0.00000   0.21348   0.08829
  63        7D+1        0.00000  -0.00012   0.17791   0.00000   0.00000
  64        7D-1        0.00000   0.10500   0.00013   0.00000   0.00000
  65        7D+2        0.00356   0.00000   0.00000   0.36269   0.14217
  66        7D-2       -0.08390   0.00000   0.00000   0.03997  -0.08880
  67 5   N  1S         -0.00047   0.00000   0.00000  -0.01052  -0.00421
  68        2S         -0.00064   0.00000   0.00000  -0.01518  -0.00617
  69        2PX         0.04177   0.00000   0.00000   0.01012  -0.02650
  70        2PY        -0.00043   0.00000   0.00000  -0.01570  -0.00435
  71        2PZ         0.00000  -0.03439  -0.00002   0.00000   0.00000
  72        3S         -0.00320   0.00000   0.00000  -0.09082  -0.03334
  73        3PX         0.05515   0.00000   0.00000   0.02294  -0.06374
  74        3PY        -0.00206   0.00000   0.00000  -0.00476   0.00083
  75        3PZ         0.00000  -0.09526   0.00012   0.00000   0.00000
  76        4S          0.12915   0.00000   0.00000   1.48476   0.57710
  77        4PX         0.14765   0.00000   0.00000   0.01064   0.01240
  78        4PY        -0.07531   0.00000   0.00000  -1.69320  -0.65959
  79        4PZ         0.00000   0.10131  -0.00025   0.00000   0.00000
  80        5S          0.45150   0.00000   0.00000  11.59014   4.29252
  81        5PX         0.51024   0.00000   0.00000   0.27134  -0.66997
  82        5PY        -0.04639   0.00000   0.00000  -2.59611  -0.96019
  83        5PZ         0.00000   0.52770  -0.00273   0.00000   0.00000
  84        6D 0        0.00034   0.00000   0.00000   0.01200   0.00464
  85        6D+1        0.00000   0.00000   0.00017   0.00000   0.00000
  86        6D-1        0.00000   0.00060   0.00000   0.00000   0.00000
  87        6D+2        0.00064   0.00000   0.00000   0.02191   0.00843
  88        6D-2        0.00726   0.00000   0.00000   0.00022   0.00044
  89        7D 0       -0.00053   0.00000   0.00000  -0.03647  -0.01358
  90        7D+1        0.00000   0.00029   0.05337   0.00000   0.00000
  91        7D-1        0.00000  -0.02599   0.00007   0.00000   0.00000
  92        7D+2       -0.00449   0.00000   0.00000  -0.07236  -0.03057
  93        7D-2        0.08100   0.00000   0.00000   0.00255  -0.00477
                          36        37        38        39        40
                           V         V         V         V         V
     Eigenvalues --     0.75097   0.77118   0.77479   0.78177   0.80882
   1 1   C  1S         -0.03181  -0.00674   0.00044   0.00000   0.00000
   2        2S         -0.05836  -0.01116   0.00080   0.00000   0.00000
   3        2PX         0.00287  -0.00051   0.00099   0.00000   0.00000
   4        2PY        -0.07378   0.01934   0.00057   0.00000   0.00000
   5        2PZ         0.00000   0.00000   0.00000   0.06499   0.02766
   6        3S          0.42302   0.30817  -0.00597   0.00000   0.00000
   7        3PX         0.01127  -0.00037   0.05739   0.00000   0.00000
   8        3PY        -0.47859   0.19689   0.00310   0.00000   0.00000
   9        3PZ         0.00000   0.00000   0.00000   0.11069   0.17999
  10        4S         -0.75822  -2.18463   0.05886   0.00000   0.00000
  11        4PX        -0.05483   0.03400   0.49397   0.00000   0.00000
  12        4PY         0.11957   0.56829   0.01056   0.00000   0.00000
  13        4PZ         0.00000   0.00000   0.00000  -0.85714  -0.36907
  14        5S         -1.19728  -0.53920   0.02194   0.00000   0.00000
  15        5PX        -0.02074  -0.00209   0.79507   0.00000   0.00000
  16        5PY        -0.23527  -0.44888   0.00146   0.00000   0.00000
  17        5PZ         0.00000   0.00000   0.00000   0.27039  -0.47810
  18        6D 0        0.00798   0.00057  -0.00005   0.00000   0.00000
  19        6D+1        0.00000   0.00000   0.00000   0.00007   0.00006
  20        6D-1        0.00000   0.00000   0.00000  -0.01281  -0.00695
  21        6D+2        0.00789  -0.00353   0.00002   0.00000   0.00000
  22        6D-2        0.00013   0.00017  -0.00701   0.00000   0.00000
  23        7D 0       -0.35649   0.72913   0.00416   0.00000   0.00000
  24        7D+1        0.00000   0.00000   0.00000   0.00457   0.00283
  25        7D-1        0.00000   0.00000   0.00000  -0.93606  -0.63109
  26        7D+2        0.04718  -0.58445  -0.00089   0.00000   0.00000
  27        7D-2        0.00729   0.01322  -0.91761   0.00000   0.00000
  28 2   H  1S         -0.02911   0.02029  -0.01039   0.00000   0.00000
  29        2S         -0.31236   1.32593   0.72382   0.00000   0.00000
  30        3S          0.05124   0.23117   0.27458   0.00000   0.00000
  31        4PX         0.02857   0.07291   0.07631   0.00000   0.00000
  32        4PY         0.00947   0.03921  -0.00287   0.00000   0.00000
  33        4PZ         0.00000   0.00000   0.00000   0.01802   0.03639
  34 3   H  1S         -0.02950   0.01946   0.01149   0.00000   0.00000
  35        2S         -0.29618   1.31718  -0.71821   0.00000   0.00000
  36        3S          0.13284   0.20952  -0.27466   0.00000   0.00000
  37        4PX        -0.03182  -0.07260   0.07704   0.00000   0.00000
  38        4PY         0.00779   0.04116  -0.00094   0.00000   0.00000
  39        4PZ         0.00000   0.00000   0.00000   0.01892   0.03847
  40 4   N  1S          0.00425  -0.00670  -0.00009   0.00000   0.00000
  41        2S          0.00861  -0.01213  -0.00017   0.00000   0.00000
  42        2PX         0.00083   0.00091  -0.14536   0.00000   0.00000
  43        2PY        -0.10012  -0.02573  -0.00174   0.00000   0.00000
  44        2PZ         0.00000   0.00000   0.00000  -0.03306   0.14514
  45        3S         -0.23731   0.02590   0.00041   0.00000   0.00000
  46        3PX         0.00072   0.00184  -0.46763   0.00000   0.00000
  47        3PY        -0.13768   0.04583  -0.00293   0.00000   0.00000
  48        3PZ         0.00000   0.00000   0.00000  -0.11506   0.52854
  49        4S          3.40672   1.10126  -0.00252   0.00000   0.00000
  50        4PX        -0.01305  -0.03281   1.44687   0.00000   0.00000
  51        4PY         2.47179   0.93469   0.04717   0.00000   0.00000
  52        4PZ         0.00000   0.00000   0.00000   0.96281  -0.49103
  53        5S         -1.48149   5.87760   0.09294   0.00000   0.00000
  54        5PX         0.03899  -0.00248  -1.39873   0.00000   0.00000
  55        5PY        -2.14244   2.09549   0.07566   0.00000   0.00000
  56        5PZ         0.00000   0.00000   0.00000  -0.04024   1.04827
  57        6D 0        0.00022   0.01228   0.00008   0.00000   0.00000
  58        6D+1        0.00000   0.00000   0.00000  -0.00025  -0.00015
  59        6D-1        0.00000   0.00000   0.00000   0.03984   0.02114
  60        6D+2        0.01113  -0.00946  -0.00044   0.00000   0.00000
  61        6D-2        0.00007  -0.00090   0.02731   0.00000   0.00000
  62        7D 0       -0.47962   0.24968   0.00350   0.00000   0.00000
  63        7D+1        0.00000   0.00000   0.00000  -0.00023  -0.00219
  64        7D-1        0.00000   0.00000   0.00000  -0.18235   0.09976
  65        7D+2       -0.42188  -0.40914  -0.00093   0.00000   0.00000
  66        7D-2       -0.00574   0.00055  -0.24857   0.00000   0.00000
  67 5   N  1S          0.01400   0.01148   0.00007   0.00000   0.00000
  68        2S          0.02486   0.01970   0.00009   0.00000   0.00000
  69        2PX         0.00029   0.00326  -0.19863   0.00000   0.00000
  70        2PY        -0.20865  -0.07994  -0.00247   0.00000   0.00000
  71        2PZ         0.00000   0.00000   0.00000  -0.19921   0.11068
  72        3S          0.03049  -0.02049   0.00110   0.00000   0.00000
  73        3PX        -0.00075   0.00872  -0.62844   0.00000   0.00000
  74        3PY        -0.38962  -0.22286  -0.00707   0.00000   0.00000
  75        3PZ         0.00000   0.00000   0.00000  -0.57956   0.45915
  76        4S         -3.15449  -1.27072  -0.02968   0.00000   0.00000
  77        4PX        -0.01452  -0.01862   0.98579   0.00000   0.00000
  78        4PY         3.29479   1.61033   0.03367   0.00000   0.00000
  79        4PZ         0.00000   0.00000   0.00000   0.89618  -0.94077
  80        5S          3.14276  -5.15150  -0.13968   0.00000   0.00000
  81        5PX        -0.00115  -0.00358  -0.15513   0.00000   0.00000
  82        5PY        -1.48473   1.05805   0.02789   0.00000   0.00000
  83        5PZ         0.00000   0.00000   0.00000  -0.56156   0.14488
  84        6D 0       -0.01252  -0.00643  -0.00009   0.00000   0.00000
  85        6D+1        0.00000   0.00000   0.00000  -0.00002   0.00006
  86        6D-1        0.00000   0.00000   0.00000   0.00239  -0.01155
  87        6D+2       -0.02078  -0.01477  -0.00027   0.00000   0.00000
  88        6D-2       -0.00020  -0.00015   0.00506   0.00000   0.00000
  89        7D 0        0.09960   0.26675   0.00335   0.00000   0.00000
  90        7D+1        0.00000   0.00000   0.00000   0.00046   0.00046
  91        7D-1        0.00000   0.00000   0.00000  -0.19721  -0.24441
  92        7D+2        0.36840  -0.02181   0.00130   0.00000   0.00000
  93        7D-2        0.00457   0.00296  -0.06420   0.00000   0.00000
                          41        42        43        44        45
                           V         V         V         V         V
     Eigenvalues --     0.84157   0.85537   0.86649   0.89798   0.97373
   1 1   C  1S          0.09832  -0.00226   0.00000   0.00000   0.00710
   2        2S          0.19458  -0.00452   0.00000   0.00000   0.02157
   3        2PX         0.00024   0.04201   0.00000   0.00000  -0.00057
   4        2PY        -0.03379   0.00013   0.00000   0.00000  -0.06103
   5        2PZ         0.00000   0.00000  -0.00222   0.00014   0.00000
   6        3S         -1.67043   0.03807   0.00000   0.00000  -0.47035
   7        3PX        -0.00049   0.26664   0.00000   0.00000  -0.00523
   8        3PY         0.38675  -0.01263   0.00000   0.00000  -0.68128
   9        3PZ         0.00000   0.00000  -0.07475   0.00057   0.00000
  10        4S         12.80224  -0.27165   0.00000   0.00000  -0.37279
  11        4PX        -0.03406  -0.60407   0.00000   0.00000  -0.02201
  12        4PY         3.21635  -0.06558   0.00000   0.00000  -1.08907
  13        4PZ         0.00000   0.00000  -0.32546  -0.00128   0.00000
  14        5S          6.04609  -0.13388   0.00000   0.00000  -0.08219
  15        5PX        -0.00702   0.01385   0.00000   0.00000   0.00527
  16        5PY         1.30018  -0.02359   0.00000   0.00000   0.30656
  17        5PZ         0.00000   0.00000   0.65044  -0.00106   0.00000
  18        6D 0        0.00524  -0.00016   0.00000   0.00000   0.00727
  19        6D+1        0.00000   0.00000   0.00000  -0.00253   0.00000
  20        6D-1        0.00000   0.00000  -0.00309  -0.00003   0.00000
  21        6D+2       -0.00023   0.00007   0.00000   0.00000   0.02689
  22        6D-2        0.00010  -0.00091   0.00000   0.00000   0.00018
  23        7D 0       -0.33825   0.00405   0.00000   0.00000  -0.68996
  24        7D+1        0.00000   0.00000   0.00164  -0.30995   0.00000
  25        7D-1        0.00000   0.00000  -0.25429  -0.00503   0.00000
  26        7D+2       -0.17715   0.00831   0.00000   0.00000   0.61881
  27        7D-2       -0.02105  -0.66302   0.00000   0.00000   0.01476
  28 2   H  1S          0.02278   0.00589   0.00000   0.00000  -0.00592
  29        2S         -0.75413   0.56202   0.00000   0.00000  -1.10694
  30        3S          0.46712  -0.82529   0.00000   0.00000   0.15336
  31        4PX        -0.10344   0.04743   0.00000   0.00000  -0.06440
  32        4PY        -0.09291   0.00153   0.00000   0.00000  -0.02676
  33        4PZ         0.00000   0.00000  -0.01194   0.08139   0.00000
  34 3   H  1S          0.02258  -0.00646   0.00000   0.00000  -0.00548
  35        2S         -0.77540  -0.53999   0.00000   0.00000  -1.05750
  36        3S          0.49953   0.80937   0.00000   0.00000   0.14436
  37        4PX         0.10666   0.04310   0.00000   0.00000   0.06128
  38        4PY        -0.09280  -0.00022   0.00000   0.00000  -0.02578
  39        4PZ         0.00000   0.00000  -0.01303  -0.08174   0.00000
  40 4   N  1S          0.02496  -0.00062   0.00000   0.00000   0.01447
  41        2S          0.04699  -0.00116   0.00000   0.00000   0.03066
  42        2PX        -0.00202  -0.15101   0.00000   0.00000  -0.00020
  43        2PY        -0.15231   0.00172   0.00000   0.00000  -0.01734
  44        2PZ         0.00000   0.00000  -0.20526   0.00047   0.00000
  45        3S         -0.30469   0.00662   0.00000   0.00000  -0.37633
  46        3PX        -0.00650  -0.48484   0.00000   0.00000  -0.00222
  47        3PY        -0.26647   0.00193   0.00000   0.00000   0.01656
  48        3PZ         0.00000   0.00000  -0.72042   0.00171   0.00000
  49        4S         -1.39165   0.02887   0.00000   0.00000   2.32899
  50        4PX         0.00676   1.88473   0.00000   0.00000   0.01528
  51        4PY         6.03758  -0.11192   0.00000   0.00000  -1.19363
  52        4PZ         0.00000   0.00000   2.14620  -0.00160   0.00000
  53        5S          0.25049  -0.02572   0.00000   0.00000  -4.76089
  54        5PX        -0.08496  -1.25900   0.00000   0.00000   0.00763
  55        5PY         9.86689  -0.23473   0.00000   0.00000  -1.82890
  56        5PZ         0.00000   0.00000  -1.87795   0.00315   0.00000
  57        6D 0        0.00362  -0.00008   0.00000   0.00000   0.00683
  58        6D+1        0.00000   0.00000  -0.00006   0.00567   0.00000
  59        6D-1        0.00000   0.00000   0.01264   0.00017   0.00000
  60        6D+2        0.01314  -0.00044   0.00000   0.00000   0.01910
  61        6D-2        0.00061   0.01844   0.00000   0.00000   0.00035
  62        7D 0        0.07540  -0.00244   0.00000   0.00000   0.13011
  63        7D+1        0.00000   0.00000  -0.00018   0.61353   0.00000
  64        7D-1        0.00000   0.00000   0.12007   0.00347   0.00000
  65        7D+2        0.06541  -0.00386   0.00000   0.00000  -0.39079
  66        7D-2       -0.00020   0.07801   0.00000   0.00000  -0.00410
  67 5   N  1S         -0.00367   0.00001   0.00000   0.00000  -0.03020
  68        2S         -0.01022   0.00008   0.00000   0.00000  -0.05731
  69        2PX         0.00495   0.13689   0.00000   0.00000  -0.00026
  70        2PY        -0.12646   0.00291   0.00000   0.00000  -0.03480
  71        2PZ         0.00000   0.00000   0.09786  -0.00020   0.00000
  72        3S          0.18804  -0.00297   0.00000   0.00000   0.42045
  73        3PX         0.01758   0.54758   0.00000   0.00000  -0.00158
  74        3PY        -0.21634   0.00694   0.00000   0.00000   0.05336
  75        3PZ         0.00000   0.00000   0.38830  -0.00034   0.00000
  76        4S         -3.58798   0.07039   0.00000   0.00000  -0.51796
  77        4PX        -0.05838  -1.61653   0.00000   0.00000   0.00041
  78        4PY         2.69917  -0.06153   0.00000   0.00000   0.04192
  79        4PZ         0.00000   0.00000  -1.34437   0.00076   0.00000
  80        5S        -12.56113   0.29490   0.00000   0.00000   4.80355
  81        5PX         0.01552   1.18700   0.00000   0.00000   0.00786
  82        5PY         2.33932  -0.05104   0.00000   0.00000  -1.40188
  83        5PZ         0.00000   0.00000   1.16822  -0.00126   0.00000
  84        6D 0       -0.00466   0.00009   0.00000   0.00000   0.00572
  85        6D+1        0.00000   0.00000   0.00012   0.00536   0.00000
  86        6D-1        0.00000   0.00000  -0.02045   0.00002   0.00000
  87        6D+2       -0.00911   0.00044   0.00000   0.00000  -0.00055
  88        6D-2       -0.00060  -0.02217   0.00000   0.00000  -0.00006
  89        7D 0        0.15614  -0.00270   0.00000   0.00000   0.64240
  90        7D+1        0.00000   0.00000   0.00120   0.64657   0.00000
  91        7D-1        0.00000   0.00000  -0.12981   0.00273   0.00000
  92        7D+2        0.30691  -0.00368   0.00000   0.00000  -0.28278
  93        7D-2       -0.00075  -0.21315   0.00000   0.00000  -0.00363
                          46        47        48        49        50
                           V         V         V         V         V
     Eigenvalues --     1.00432   1.01126   1.12700   1.21230   1.23672
   1 1   C  1S         -0.03985  -0.00322   0.00481   0.00000  -0.00072
   2        2S         -0.08010  -0.00641   0.03266   0.00000  -0.00141
   3        2PX        -0.00574   0.06382  -0.00040   0.00000  -0.05788
   4        2PY         0.06837   0.00455  -0.07571   0.00000   0.00598
   5        2PZ         0.00000   0.00000   0.00000  -0.00042   0.00000
   6        3S          0.81013   0.06350  -0.32560   0.00000   0.00180
   7        3PX        -0.06508   0.72932   0.00938   0.00000  -0.00354
   8        3PY        -0.10808  -0.01742  -1.53872   0.00000   0.01703
   9        3PZ         0.00000   0.00000   0.00000  -0.00111   0.00000
  10        4S         -2.92807  -0.27135 -12.09837   0.00000   0.13538
  11        4PX        -0.25653   3.08066   0.06893   0.00000  -0.61241
  12        4PY        -2.14504  -0.23548  -4.89412   0.00000   0.09788
  13        4PZ         0.00000   0.00000   0.00000  -0.00362   0.00000
  14        5S          1.30751   0.12058  -1.70136   0.00000   0.03302
  15        5PX         0.02327  -0.28165   0.01250   0.00000  -0.00553
  16        5PY         1.03018   0.09022   0.16617   0.00000   0.00829
  17        5PZ         0.00000   0.00000   0.00000   0.00096   0.00000
  18        6D 0        0.00878   0.00093   0.02923   0.00000   0.00051
  19        6D+1        0.00000   0.00000   0.00000   0.00692   0.00000
  20        6D-1        0.00000   0.00000   0.00000   0.00001   0.00000
  21        6D+2        0.02656   0.00247   0.08059   0.00000   0.00029
  22        6D-2        0.00132  -0.01289   0.00072   0.00000   0.00701
  23        7D 0        0.27249   0.02574   0.85934   0.00000  -0.01130
  24        7D+1        0.00000   0.00000   0.00000   0.13267   0.00000
  25        7D-1        0.00000   0.00000   0.00000  -0.00031   0.00000
  26        7D+2        0.81358   0.07547   0.98011   0.00000  -0.03276
  27        7D-2        0.17551  -1.89548  -0.00067   0.00000  -0.95695
  28 2   H  1S          0.00919  -0.01184   0.02805   0.00000  -0.01242
  29        2S         -0.41785   2.75255   0.70750   0.00000   0.44833
  30        3S         -0.10438   0.04344  -0.62853   0.00000  -0.31715
  31        4PX         0.00023   0.11054   0.00001   0.00000  -0.07372
  32        4PY        -0.02236   0.15312  -0.02861   0.00000   0.24157
  33        4PZ         0.00000   0.00000   0.00000  -0.19894   0.00000
  34 3   H  1S          0.00639   0.01287   0.02741   0.00000   0.01180
  35        2S          0.07711  -2.80752   0.67312   0.00000  -0.42951
  36        3S         -0.10690  -0.05708  -0.67675   0.00000   0.31957
  37        4PX        -0.02035   0.10980  -0.00183   0.00000  -0.07667
  38        4PY         0.00472  -0.15322  -0.03746   0.00000  -0.24822
  39        4PZ         0.00000   0.00000   0.00000   0.20058   0.00000
  40 4   N  1S          0.05089   0.00419   0.05451   0.00000   0.00130
  41        2S          0.10246   0.00862   0.11924   0.00000   0.00271
  42        2PX        -0.01094   0.11972   0.00024   0.00000   0.00954
  43        2PY         0.04585   0.00347  -0.02601   0.00000   0.00435
  44        2PZ         0.00000   0.00000   0.00000  -0.00009   0.00000
  45        3S         -0.85818  -0.07882  -1.50151   0.00000  -0.02173
  46        3PX        -0.05309   0.61768   0.00154   0.00000   0.00566
  47        3PY        -0.30152  -0.02227  -0.06445   0.00000   0.01507
  48        3PZ         0.00000   0.00000   0.00000  -0.00066   0.00000
  49        4S          5.40915   0.52142  12.31282   0.00000  -0.11555
  50        4PX         0.08534  -1.00008   0.03273   0.00000   1.55567
  51        4PY         0.63081   0.02315  -4.84114   0.00000   0.07328
  52        4PZ         0.00000   0.00000   0.00000   0.00686   0.00000
  53        5S         -0.73116   0.08228  -7.98583   0.00000  -0.20983
  54        5PX         0.00217  -0.04328   0.02651   0.00000  -0.18113
  55        5PY        -0.67089   0.02012  -7.32451   0.00000  -0.04432
  56        5PZ         0.00000   0.00000   0.00000  -0.00098   0.00000
  57        6D 0        0.00864   0.00104   0.03719   0.00000  -0.00039
  58        6D+1        0.00000   0.00000   0.00000  -0.01209   0.00000
  59        6D-1        0.00000   0.00000   0.00000  -0.00025   0.00000
  60        6D+2        0.01584   0.00123   0.05631   0.00000  -0.00002
  61        6D-2       -0.00207   0.02730   0.00035   0.00000  -0.02498
  62        7D 0        0.01161  -0.00074  -0.32920   0.00000  -0.01396
  63        7D+1        0.00000   0.00000   0.00000  -0.77436   0.00000
  64        7D-1        0.00000   0.00000   0.00000  -0.00667   0.00000
  65        7D+2       -0.09542  -0.00888  -0.92771   0.00000   0.01825
  66        7D-2        0.00924  -0.10406  -0.01525   0.00000  -0.58894
  67 5   N  1S          0.07978   0.00707  -0.04910   0.00000   0.00059
  68        2S          0.16104   0.01431  -0.09280   0.00000   0.00117
  69        2PX         0.00222  -0.03079   0.00117   0.00000   0.09743
  70        2PY         0.01779   0.00056  -0.07243   0.00000   0.00229
  71        2PZ         0.00000   0.00000   0.00000   0.00047   0.00000
  72        3S         -1.16106  -0.10344   0.79817   0.00000  -0.00849
  73        3PX         0.00190  -0.04446   0.00020   0.00000   0.27134
  74        3PY         0.17139   0.01301   0.25209   0.00000   0.00669
  75        3PZ         0.00000   0.00000   0.00000   0.00120   0.00000
  76        4S          0.35061   0.03941  -1.56325   0.00000  -0.00391
  77        4PX        -0.03109   0.31308  -0.00620   0.00000  -0.67801
  78        4PY         0.80673   0.07641   0.78165   0.00000  -0.00977
  79        4PZ         0.00000   0.00000   0.00000  -0.00310   0.00000
  80        5S         -1.47802  -0.29299  12.75499   0.00000   0.14361
[...]
  71        2PZ         0.00000   0.00000   0.00000   0.00332   0.00000
  72        3S          0.00000   0.00164   0.00000   0.00000   0.00465
  73        3PX         0.00013   0.00000   0.00000   0.00000   0.00000
  74        3PY         0.00000   0.00104   0.00000   0.00000   0.00222
  75        3PZ         0.00000   0.00000   0.00000   0.01451   0.00000
  76        4S          0.00000   0.00033   0.00000   0.00000   0.00128
  77        4PX         0.00012   0.00000   0.00000   0.00000   0.00000
  78        4PY         0.00000  -0.00008   0.00000   0.00000  -0.00017
  79        4PZ         0.00000   0.00000   0.00000   0.01424   0.00000
  80        5S          0.00000   0.00005   0.00000   0.00000   0.00011
  81        5PX         0.00000   0.00000   0.00000   0.00000   0.00000
  82        5PY         0.00000  -0.00003   0.00000   0.00000  -0.00006
  83        5PZ         0.00000   0.00000   0.00000   0.00086   0.00000
  84        6D 0        0.00000   0.00001   0.00000   0.00000   0.00001
  85        6D+1        0.00000   0.00000   0.00000   0.00000   0.00000
  86        6D-1        0.00000   0.00000   0.00000   0.00009   0.00000
  87        6D+2        0.00000   0.00001   0.00000   0.00000   0.00004
  88        6D-2        0.00000   0.00000   0.00000   0.00000   0.00000
  89        7D 0        0.00000   0.00008   0.00000   0.00000  -0.00006
  90        7D+1        0.00000   0.00000   0.00000   0.00000   0.00000
  91        7D-1        0.00000   0.00000   0.00000   0.00041   0.00000
  92        7D+2        0.00000  -0.00007   0.00000   0.00000   0.00004
  93        7D-2        0.00003   0.00000   0.00000   0.00000   0.00000
                          66        67        68        69        70
  66        7D-2        0.00303
  67 5   N  1S          0.00000   0.65427
  68        2S          0.00000   0.50973   0.51659
  69        2PX         0.00136   0.00000   0.00000   0.05938
  70        2PY         0.00000   0.00000   0.00000   0.00000   0.08093
  71        2PZ         0.00000   0.00000   0.00000   0.00000   0.00000
  72        3S          0.00000  -0.04546  -0.09156   0.00000   0.00000
  73        3PX         0.00615   0.00000   0.00000   0.05644   0.00000
  74        3PY         0.00000   0.00000   0.00000   0.00000   0.07300
  75        3PZ         0.00000   0.00000   0.00000   0.00000   0.00000
  76        4S          0.00000  -0.02441  -0.04266   0.00000   0.00000
  77        4PX         0.00515   0.00000   0.00000   0.01511   0.00000
  78        4PY         0.00000   0.00000   0.00000   0.00000   0.01303
  79        4PZ         0.00000   0.00000   0.00000   0.00000   0.00000
  80        5S          0.00000   0.00155   0.00241   0.00000   0.00000
  81        5PX         0.00006   0.00000   0.00000   0.00017   0.00000
  82        5PY         0.00000   0.00000   0.00000   0.00000   0.00124
  83        5PZ         0.00000   0.00000   0.00000   0.00000   0.00000
  84        6D 0        0.00000   0.00000   0.00000   0.00000   0.00000
  85        6D+1        0.00000   0.00000   0.00000   0.00000   0.00000
  86        6D-1        0.00000   0.00000   0.00000   0.00000   0.00000
  87        6D+2        0.00000   0.00000   0.00000   0.00000   0.00000
  88        6D-2        0.00010   0.00000   0.00000   0.00000   0.00000
  89        7D 0        0.00000   0.00000   0.00000   0.00000   0.00000
  90        7D+1        0.00000   0.00000   0.00000   0.00000   0.00000
  91        7D-1        0.00000   0.00000   0.00000   0.00000   0.00000
  92        7D+2        0.00000   0.00000   0.00000   0.00000   0.00000
  93        7D-2        0.00086   0.00000   0.00000   0.00000   0.00000
                          71        72        73        74        75
  71        2PZ         0.13836
  72        3S          0.00000   0.67709
  73        3PX         0.00000   0.00000   0.13957
  74        3PY         0.00000   0.00000   0.00000   0.17137
  75        3PZ         0.12806   0.00000   0.00000   0.00000   0.30844
  76        4S          0.00000   0.50119   0.00000   0.00000   0.00000
  77        4PX         0.00000   0.00000   0.07090   0.00000   0.00000
  78        4PY         0.00000   0.00000   0.00000   0.05811   0.00000
  79        4PZ         0.03886   0.00000   0.00000   0.00000   0.17743
  80        5S          0.00000  -0.03217   0.00000   0.00000   0.00000
  81        5PX         0.00000   0.00000   0.00106   0.00000   0.00000
  82        5PY         0.00000   0.00000   0.00000   0.00722   0.00000
  83        5PZ         0.00200   0.00000   0.00000   0.00000   0.01199
  84        6D 0        0.00000   0.00000   0.00000   0.00000   0.00000
  85        6D+1        0.00000   0.00000   0.00000   0.00000   0.00000
  86        6D-1        0.00000   0.00000   0.00000   0.00000   0.00000
  87        6D+2        0.00000   0.00000   0.00000   0.00000   0.00000
  88        6D-2        0.00000   0.00000   0.00000   0.00000   0.00000
  89        7D 0        0.00000   0.00000   0.00000   0.00000   0.00000
  90        7D+1        0.00000   0.00000   0.00000   0.00000   0.00000
  91        7D-1        0.00000   0.00000   0.00000   0.00000   0.00000
  92        7D+2        0.00000   0.00000   0.00000   0.00000   0.00000
  93        7D-2        0.00000   0.00000   0.00000   0.00000   0.00000
                          76        77        78        79        80
  76        4S          0.68758
  77        4PX         0.00000   0.08747
  78        4PY         0.00000   0.00000   0.04815
  79        4PZ         0.00000   0.00000   0.00000   0.24965
  80        5S         -0.09185   0.00000   0.00000   0.00000   0.08416
  81        5PX         0.00000   0.00244   0.00000   0.00000   0.00000
  82        5PY         0.00000   0.00000   0.01030   0.00000   0.00000
  83        5PZ         0.00000   0.00000   0.00000   0.03194   0.00000
  84        6D 0        0.00000   0.00000   0.00000   0.00000   0.00000
  85        6D+1        0.00000   0.00000   0.00000   0.00000   0.00000
  86        6D-1        0.00000   0.00000   0.00000   0.00000   0.00000
  87        6D+2        0.00000   0.00000   0.00000   0.00000   0.00000
  88        6D-2        0.00000   0.00000   0.00000   0.00000   0.00000
  89        7D 0        0.00000   0.00000   0.00000   0.00000   0.00000
  90        7D+1        0.00000   0.00000   0.00000   0.00000   0.00000
  91        7D-1        0.00000   0.00000   0.00000   0.00000   0.00000
  92        7D+2        0.00000   0.00000   0.00000   0.00000   0.00000
  93        7D-2        0.00000   0.00000   0.00000   0.00000   0.00000
                          81        82        83        84        85
  81        5PX         0.00015
  82        5PY         0.00000   0.01095
  83        5PZ         0.00000   0.00000   0.00915
  84        6D 0        0.00000   0.00000   0.00000   0.00013
  85        6D+1        0.00000   0.00000   0.00000   0.00000   0.00000
  86        6D-1        0.00000   0.00000   0.00000   0.00000   0.00000
  87        6D+2        0.00000   0.00000   0.00000   0.00000   0.00000
  88        6D-2        0.00000   0.00000   0.00000   0.00000   0.00000
  89        7D 0        0.00000   0.00000   0.00000   0.00009   0.00000
  90        7D+1        0.00000   0.00000   0.00000   0.00000   0.00000
  91        7D-1        0.00000   0.00000   0.00000   0.00000   0.00000
  92        7D+2        0.00000   0.00000   0.00000   0.00000   0.00000
  93        7D-2        0.00000   0.00000   0.00000   0.00000   0.00000
                          86        87        88        89        90
  86        6D-1        0.00018
  87        6D+2        0.00000   0.00040
  88        6D-2        0.00000   0.00000   0.00020
  89        7D 0        0.00000   0.00000   0.00000   0.00036
  90        7D+1        0.00000   0.00000   0.00000   0.00000   0.00000
  91        7D-1        0.00027   0.00000   0.00000   0.00000   0.00000
  92        7D+2        0.00000   0.00028   0.00000   0.00000   0.00000
  93        7D-2        0.00000   0.00000   0.00030   0.00000   0.00000
                          91        92        93
  91        7D-1        0.00195
  92        7D+2        0.00000   0.00100
  93        7D-2        0.00000   0.00000   0.00216
     Gross orbital populations:
                           1
   1 1   C  1S          1.10354
   2        2S          0.88490
   3        2PX         0.23439
   4        2PY         0.22161
   5        2PZ         0.21103
   6        3S          0.74534
   7        3PX         0.51588
   8        3PY         0.46556
   9        3PZ         0.49196
  10        4S          0.47068
  11        4PX         0.24381
  12        4PY         0.12149
  13        4PZ         0.38795
  14        5S          0.06070
  15        5PX         0.01716
  16        5PY         0.01644
  17        5PZ         0.02942
  18        6D 0        0.00240
  19        6D+1        0.00000
  20        6D-1        0.00400
  21        6D+2        0.00792
  22        6D-2        0.00605
  23        7D 0        0.00126
  24        7D+1        0.00000
  25        7D-1        0.01923
  26        7D+2        0.00658
  27        7D-2        0.04818
  28 2   H  1S          0.27067
  29        2S          0.50297
  30        3S          0.05137
  31        4PX         0.01453
  32        4PY         0.00582
  33        4PZ         0.00786
  34 3   H  1S          0.27046
  35        2S          0.50306
  36        3S          0.05051
  37        4PX         0.01449
  38        4PY         0.00599
  39        4PZ         0.00785
  40 4   N  1S          1.09529
  41        2S          0.89620
  42        2PX         0.24431
  43        2PY         0.27008
  44        2PZ         0.23996
  45        3S          0.89590
  46        3PX         0.55547
  47        3PY         0.60805
  48        3PZ         0.56137
  49        4S          0.55491
  50        4PX         0.38441
  51        4PY         0.05621
  52        4PZ         0.39220
  53        5S         -0.11841
  54        5PX         0.01899
  55        5PY        -0.02695
  56        5PZ        -0.00443
  57        6D 0        0.00071
  58        6D+1        0.00000
  59        6D-1        0.00408
  60        6D+2        0.00204
  61        6D-2        0.00154
  62        7D 0        0.00307
  63        7D+1        0.00000
  64        7D-1        0.07448
  65        7D+2        0.00694
  66        7D-2        0.03210
  67 5   N  1S          1.09614
  68        2S          0.89538
  69        2PX         0.14100
  70        2PY         0.19916
  71        2PZ         0.31422
  72        3S          1.00314
  73        3PX         0.33060
  74        3PY         0.46866
  75        3PZ         0.66482
  76        4S          0.94410
  77        4PX         0.27768
  78        4PY         0.21365
  79        4PZ         0.53160
  80        5S         -0.01108
  81        5PX         0.00658
  82        5PY         0.05082
  83        5PZ         0.04545
  84        6D 0        0.00088
  85        6D+1        0.00000
  86        6D-1        0.00106
  87        6D+2        0.00265
  88        6D-2        0.00135
  89        7D 0        0.00388
  90        7D+1        0.00000
  91        7D-1        0.01588
  92        7D+2        0.01182
  93        7D-2        0.01900
          Condensed to atoms (all electrons):
               1          2          3          4          5
     1  C    5.066236   0.419574   0.419516   0.504183  -0.092034
     2  H    0.419574   0.510253  -0.031761  -0.035029  -0.009826
     3  H    0.419516  -0.031761   0.508331  -0.034035  -0.009694
     4  N    0.504183  -0.035029  -0.034035   5.677036   0.636346
     5  N   -0.092034  -0.009826  -0.009694   0.636346   6.703664
 Mulliken charges:
               1
     1  C   -0.317475
     2  H    0.146790
     3  H    0.147642
     4  N    0.251499
     5  N   -0.228456
 Sum of Mulliken charges =   0.00000
 Mulliken charges with hydrogens summed into heavy atoms:
               1
     1  C   -0.023043
     4  N    0.251499
     5  N   -0.228456
 Electronic spatial extent (au):  <R**2>=            145.0537
 Charge=              0.0000 electrons
 Dipole moment (field-independent basis, Debye):
    X=              0.0174    Y=             -2.9045    Z=              0.0000  Tot=              2.9046
 Quadrupole moment (field-independent basis, Debye-Ang):
   XX=            -15.9557   YY=            -17.9040   ZZ=            -19.4032
   XY=             -0.0016   XZ=              0.0000   YZ=              0.0000
 Traceless Quadrupole moment (field-independent basis, Debye-Ang):
   XX=              1.7986   YY=             -0.1497   ZZ=             -1.6489
   XY=             -0.0016   XZ=              0.0000   YZ=              0.0000
 Octapole moment (field-independent basis, Debye-Ang**2):
  XXX=              0.0184  YYY=             -9.2515  ZZZ=              0.0000  XYY=              0.0842
  XXY=             -2.3010  XXZ=              0.0000  XZZ=              0.0015  YZZ=             -0.2085
  YYZ=              0.0000  XYZ=              0.0000
 Hexadecapole moment (field-independent basis, Debye-Ang**3):
 XXXX=            -21.1893 YYYY=           -152.5309 ZZZZ=            -20.7493 XXXY=              0.3221
 XXXZ=              0.0000 YYYX=              0.3136 YYYZ=              0.0000 ZZZX=              0.0000
 ZZZY=              0.0000 XXYY=            -24.5417 XXZZ=             -7.4193 YYZZ=            -33.1000
 XXYZ=              0.0000 YYXZ=              0.0000 ZZXY=              0.1479
 N-N= 5.825121694889D+01 E-N=-4.629756566662D+02  KE= 1.477042491606D+02
 Symmetry A'   KE= 1.415098314651D+02
 Symmetry A"   KE= 6.194417695470D+00
 Orbital energies and kinetic energies (alpha):
                                 1                 2
   1         O               -14.488512         22.068086
   2         O               -14.436486         22.077850
   3         O               -10.255821         15.958639
   4         O                -1.039206          2.200578
   5         O                -0.860074          2.087304
   6         O                -0.603586          1.504607
   7         O                -0.532357          1.170161
   8         O                -0.459701          2.157145
   9         O                -0.451561          1.512431
  10         O                -0.362979          1.530547
  11         O                -0.247772          1.584778
  12         V                -0.096788          1.931183
  13         V                -0.019339          1.571801
  14         V                 0.008488          0.330598
  15         V                 0.048084          0.252772
  16         V                 0.048237          0.234491
  17         V                 0.076575          0.586734
  18         V                 0.103704          0.707070
  19         V                 0.138604          0.690854
  20         V                 0.143637          0.442344
  21         V                 0.153374          0.400834
  22         V                 0.175524          1.684827
  23         V                 0.213988          0.457101
  24         V                 0.216645          0.480128
  25         V                 0.223396          0.440817
  26         V                 0.228440          0.856925
  27         V                 0.233375          1.325724
  28         V                 0.289648          0.687486
  29         V                 0.356654          0.912002
  30         V                 0.502974          1.434278
  31         V                 0.512667          1.338589
  32         V                 0.538520          1.489320
  33         V                 0.550473          1.102388
  34         V                 0.658644          2.170247
  35         V                 0.661325          1.666542
  36         V                 0.750972          1.889586
  37         V                 0.771180          1.413986
  38         V                 0.774791          1.956539
  39         V                 0.781765          1.792605
  40         V                 0.808821          1.774195
  41         V                 0.841568          2.549129
  42         V                 0.855367          1.852855
  43         V                 0.866487          1.950012
  44         V                 0.897977          1.522900
  45         V                 0.973733          1.719073
  46         V                 1.004324          2.766667
  47         V                 1.011259          1.816415
  48         V                 1.126998          2.376151
  49         V                 1.212297          1.865716
  50         V                 1.236721          2.075270
  51         V                 1.256094          2.781569
  52         V                 1.304049          2.841761
  53         V                 1.320186          2.137698
  54         V                 1.390410          2.244079
  55         V                 1.659944          2.539997
  56         V                 1.676068          2.354145
  57         V                 1.774550          2.788197
  58         V                 1.892966          3.320797
  59         V                 1.893481          2.527551
  60         V                 2.062325          3.483024
  61         V                 2.102475          3.405752
  62         V                 2.327133          3.665211
  63         V                 2.340329          3.692486
  64         V                 2.500647          4.419042
  65         V                 2.634950          4.086602
  66         V                 2.801076          6.295254
  67         V                 2.829506          4.548709
  68         V                 3.198621          4.911272
  69         V                 3.232420          6.250640
  70         V                 3.359274          5.801285
  71         V                 3.415823          6.296897
  72         V                 3.507068          6.104313
  73         V                 3.837963          8.334763
  74         V                 3.869442          8.511886
  75         V                 3.925815          8.940577
  76         V                 3.927064          8.819118
  77         V                 3.986257          7.271869
  78         V                 4.118089          6.529325
  79         V                 4.446819          8.953666
  80         V                 4.675495          7.147560
  81         V                 4.684518          7.152456
  82         V                 4.794109          7.240652
  83         V                 4.813642          7.370680
  84         V                 4.855842          8.287194
  85         V                 4.911423          7.349471
  86         V                 4.914310          7.373341
  87         V                 5.092885          7.605868
  88         V                 5.235345          7.748867
  89         V                 5.374911          9.109266
  90         V                 5.563576          8.330328
  91         V                24.265264         60.560034
  92         V                35.498262         89.062527
  93         V                35.579102         88.931761
 Total kinetic energy from orbitals= 1.477042491606D+02
 1|1|UNPC-DESKTOP-KC5UJLK|SP|RAPFD|6-311+G(2d,p)|C1H2N2|23122|05-Feb-20
 22|0||# apfd/6-311+g(2d,p) geom=connectivity pop=full int=ultrafine||E
 nergy Calculation(GC)||0,1|C,0,-0.00045906,-1.16181164,0.|H,0,0.930212
 08,-1.68978059,0.|H,0,-0.92195393,-1.70563808,0.|N,0,-0.00041551,0.070
 92185,0.|N,0,-0.00037074,1.40997651,0.||Version=IA32W-G09RevD.01|State
 =1-A'|HF=-148.6014391|RMSD=5.800e-009|Dipole=-0.0001377,-1.1427395,0.|
 Quadrupole=1.3371597,-0.1112422,-1.2259176,0.0096995,0.,0.|PG=CS [SG(C
 1H2N2)]||@


 Discoveries are often made by not following instructions,
 by going off the main road, by trying the untried.
 -- Frank Tyger
 Job cpu time:       0 days  0 hours  0 minutes 13.0 seconds.
 File lengths (MBytes):  RWF=      5 Int=      0 D2E=      0 Chk=      1 Scr=      1
 Normal termination of Gaussian 09 at Sat Feb 05 16:28:13 2022.
