 Entering Link 1 = C:\G09W\l1.exe PID=      8540.
  
 Copyright (c) 1988,1990,1992,1993,1995,1998,2003,2009,2013,
            Gaussian, Inc.  All Rights Reserved.
  
 This is part of the Gaussian(R) 09 program.  It is based on
 the Gaussian(R) 03 system (copyright 2003, Gaussian, Inc.),
 the Gaussian(R) 98 system (copyright 1998, Gaussian, Inc.),
 the Gaussian(R) 94 system (copyright 1995, Gaussian, Inc.),
 the Gaussian 92(TM) system (copyright 1992, Gaussian, Inc.),
 the Gaussian 90(TM) system (copyright 1990, Gaussian, Inc.),
 the Gaussian 88(TM) system (copyright 1988, Gaussian, Inc.),
 the Gaussian 86(TM) system (copyright 1986, Carnegie Mellon
 University), and the Gaussian 82(TM) system (copyright 1983,
 Carnegie Mellon University). Gaussian is a federally registered
 trademark of Gaussian, Inc.
  
 This software contains proprietary and confidential information,
 including trade secrets, belonging to Gaussian, Inc.
  
 This software is provided under written license and may be
 used, copied, transmitted, or stored only in accord with that
 written license.
  
 The following legend is applicable only to US Government
 contracts under FAR:
  
                    RESTRICTED RIGHTS LEGEND
  
 Use, reproduction and disclosure by the US Government is
 subject to restrictions as set forth in subparagraphs (a)
 and (c) of the Commercial Computer Software - Restricted
 Rights clause in FAR 52.227-19.
  
 Gaussian, Inc.
 340 Quinnipiac St., Bldg. 40, Wallingford CT 06492
  
  
 ---------------------------------------------------------------
 Warning -- This program may not be used in any manner that
 competes with the business of Gaussian, Inc. or will provide
 assistance to any competitor of Gaussian, Inc.  The licensee
 of this program is prohibited from giving any competitor of
 Gaussian, Inc. access to this program.  By using this program,
 the user acknowledges that Gaussian, Inc. is engaged in the
 business of creating and licensing software in the field of
 computational chemistry and represents and warrants to the
 licensee that it is not a competitor of Gaussian, Inc. and that
 it will not use this program in any manner prohibited above.
 ---------------------------------------------------------------
  

 Cite this work as:
 Gaussian 09, Revision D.01,
 M. J. Frisch, G. W. Trucks, H. B. Schlegel, G. E. Scuseria, 
 M. A. Robb, J. R. Cheeseman, G. Scalmani, V. Barone, B. Mennucci, 
 G. A. Petersson, H. Nakatsuji, M. Caricato, X. Li, H. P. Hratchian, 
 A. F. Izmaylov, J. Bloino, G. Zheng, J. L. Sonnenberg, M. Hada, 
 M. Ehara, K. Toyota, R. Fukuda, J. Hasegawa, M. Ishida, T. Nakajima, 
 Y. Honda, O. Kitao, H. Nakai, T. Vreven, J. A. Montgomery, Jr., 
 J. E. Peralta, F. Ogliaro, M. Bearpark, J. J. Heyd, E. Brothers, 
 K. N. Kudin, V. N. Staroverov, T. Keith, R. Kobayashi, J. Normand, 
 K. Raghavachari, A. Rendell, J. C. Burant, S. S. Iyengar, J. Tomasi, 
 M. Cossi, N. Rega, J. M. Millam, M. Klene, J. E. Knox, J. B. Cross, 
 V. Bakken, C. Adamo, J. Jaramillo, R. Gomperts, R. E. Stratmann, 
 O. Yazyev, A. J. Austin, R. Cammi, C. Pomelli, J. W. Ochterski, 
 R. L. Martin, K. Morokuma, V. G. Zakrzewski, G. A. Voth, 
 P. Salvador, J. J. Dannenberg, S. Dapprich, A. D. Daniels, 
 O. Farkas, J. B. Foresman, J. V. Ortiz, J. Cioslowski, 
 and D. J. Fox, Gaussian, Inc., Wallingford CT, 2013.
 
 ******************************************
 Gaussian 09:  IA32W-G09RevD.01 24-Apr-2013
                17-Mar-2022 
 ******************************************
 %nprocshared=4
 Will use up to    4 processors via shared memory.
 %mem=1GB
 -----------------------------------------
 # opt freq pm6 pop=full geom=connectivity
 -----------------------------------------
 1/14=-1,18=20,19=15,26=1,38=1,57=2/1,3;
 2/9=110,12=2,17=6,18=5,40=1/2;
 3/5=2,16=1,25=1,41=3900000,71=1/1,2,3;
 4/35=1/1;
 5/5=2,35=1,38=5/2;
 6/7=3,28=1/1;
 7//1,2,3,16;
 1/14=-1,18=20,19=15,26=1/3(2);
 2/9=110/2;
 99//99;
 2/9=110/2;
 3/5=2,16=1,25=1,41=3900000,71=1,135=20/1,2,3;
 4/5=5,16=3,35=1/1;
 5/5=2,35=1,38=5/2;
 7//1,2,3,16;
 1/14=-1,18=20,19=15,26=1/3(-5);
 2/9=110/2;
 6/7=3,19=2,28=1/1;
 99/9=1/99;
 ----------------------
 Energy Calculation(GC)
 ----------------------
 Symbolic Z-matrix:
 Charge =  0 Multiplicity = 1
 C                    -1.10071   0.28106   0.85831 
 O                    -1.38343   1.31198   0.32465 
 O                     0.11552  -0.3898    0.63308 
 C                     1.33713   0.19493   0.24861 
 O                     1.46781   1.36846   0.06763 
 O                    -1.83772  -0.50823   1.79572 
 O                     2.28501  -0.87042   0.14158 
 C                    -3.22562  -0.17351   1.71455 
 C                    -3.43126   1.27985   2.18044 
 H                    -3.52388   1.91831   1.32681 
 H                    -4.32135   1.34253   2.77097 
 H                    -2.59145   1.5885    2.76724 
 C                    -3.70423  -0.31825   0.25798 
 H                    -3.11742  -1.06298  -0.23794 
 H                    -4.73356  -0.61032   0.24813 
 H                    -3.59427   0.61797  -0.24828 
 C                    -4.03602  -1.12167   2.61779 
 H                    -3.69172  -1.03377   3.62707 
 H                    -5.07249  -0.86017   2.57046 
 H                    -3.90691  -2.12985   2.28343 
 C                     3.55132  -0.34378  -0.2634 
 C                     3.40478   0.35199  -1.62942 
 H                     3.29754   1.40648  -1.48291 
 H                     4.27486   0.16092  -2.22217 
 H                     2.54012  -0.02799  -2.1323 
 C                     4.04142   0.67544   0.78187 
 H                     3.58549   0.46466   1.72665 
 H                     5.10506   0.60652   0.87584 
 H                     3.77424   1.6633    0.46939 
 C                     4.57148  -1.49163  -0.37878 
 H                     4.23017  -2.20061  -1.10387 
 H                     5.51859  -1.09778  -0.68336 
 H                     4.6745   -1.97404   0.57074 
 

 GradGradGradGradGradGradGradGradGradGradGradGradGradGradGradGradGradGrad
 Berny optimization.
 Initialization pass.
                           ----------------------------
                           !    Initial Parameters    !
                           ! (Angstroms and Degrees)  !
 --------------------------                            --------------------------
 ! Name  Definition              Value          Derivative Info.                !
 --------------------------------------------------------------------------------
 ! R1    R(1,2)                  1.1948         estimate D2E/DX2                !
 ! R2    R(1,3)                  1.4071         estimate D2E/DX2                !
 ! R3    R(1,6)                  1.43           estimate D2E/DX2                !
 ! R4    R(3,4)                  1.4079         estimate D2E/DX2                !
 ! R5    R(4,5)                  1.1946         estimate D2E/DX2                !
 ! R6    R(4,7)                  1.43           estimate D2E/DX2                !
 ! R7    R(6,8)                  1.43           estimate D2E/DX2                !
 ! R8    R(7,21)                 1.43           estimate D2E/DX2                !
 ! R9    R(8,9)                  1.54           estimate D2E/DX2                !
 ! R10   R(8,13)                 1.54           estimate D2E/DX2                !
 ! R11   R(8,17)                 1.54           estimate D2E/DX2                !
 ! R12   R(9,10)                 1.07           estimate D2E/DX2                !
 ! R13   R(9,11)                 1.07           estimate D2E/DX2                !
 ! R14   R(9,12)                 1.07           estimate D2E/DX2                !
 ! R15   R(13,14)                1.07           estimate D2E/DX2                !
 ! R16   R(13,15)                1.07           estimate D2E/DX2                !
 ! R17   R(13,16)                1.07           estimate D2E/DX2                !
 ! R18   R(17,18)                1.07           estimate D2E/DX2                !
 ! R19   R(17,19)                1.07           estimate D2E/DX2                !
 ! R20   R(17,20)                1.07           estimate D2E/DX2                !
 ! R21   R(21,22)                1.54           estimate D2E/DX2                !
 ! R22   R(21,26)                1.54           estimate D2E/DX2                !
 ! R23   R(21,30)                1.54           estimate D2E/DX2                !
 ! R24   R(22,23)                1.07           estimate D2E/DX2                !
 ! R25   R(22,24)                1.07           estimate D2E/DX2                !
 ! R26   R(22,25)                1.07           estimate D2E/DX2                !
 ! R27   R(26,27)                1.07           estimate D2E/DX2                !
 ! R28   R(26,28)                1.07           estimate D2E/DX2                !
 ! R29   R(26,29)                1.07           estimate D2E/DX2                !
 ! R30   R(30,31)                1.07           estimate D2E/DX2                !
 ! R31   R(30,32)                1.07           estimate D2E/DX2                !
 ! R32   R(30,33)                1.07           estimate D2E/DX2                !
 ! A1    A(2,1,3)              122.9839         estimate D2E/DX2                !
 ! A2    A(2,1,6)              130.3227         estimate D2E/DX2                !
 ! A3    A(3,1,6)              106.6934         estimate D2E/DX2                !
 ! A4    A(1,3,4)              126.5622         estimate D2E/DX2                !
 ! A5    A(3,4,5)              122.9775         estimate D2E/DX2                !
 ! A6    A(3,4,7)              106.6296         estimate D2E/DX2                !
 ! A7    A(5,4,7)              130.3929         estimate D2E/DX2                !
 ! A8    A(1,6,8)              109.5            estimate D2E/DX2                !
 ! A9    A(4,7,21)             109.5            estimate D2E/DX2                !
 ! A10   A(6,8,9)              109.4712         estimate D2E/DX2                !
 ! A11   A(6,8,13)             109.4712         estimate D2E/DX2                !
 ! A12   A(6,8,17)             109.4712         estimate D2E/DX2                !
 ! A13   A(9,8,13)             109.4712         estimate D2E/DX2                !
 ! A14   A(9,8,17)             109.4713         estimate D2E/DX2                !
 ! A15   A(13,8,17)            109.4712         estimate D2E/DX2                !
 ! A16   A(8,9,10)             109.4712         estimate D2E/DX2                !
 ! A17   A(8,9,11)             109.4712         estimate D2E/DX2                !
 ! A18   A(8,9,12)             109.4712         estimate D2E/DX2                !
 ! A19   A(10,9,11)            109.4713         estimate D2E/DX2                !
 ! A20   A(10,9,12)            109.4712         estimate D2E/DX2                !
 ! A21   A(11,9,12)            109.4712         estimate D2E/DX2                !
 ! A22   A(8,13,14)            109.4712         estimate D2E/DX2                !
 ! A23   A(8,13,15)            109.4712         estimate D2E/DX2                !
 ! A24   A(8,13,16)            109.4712         estimate D2E/DX2                !
 ! A25   A(14,13,15)           109.4713         estimate D2E/DX2                !
 ! A26   A(14,13,16)           109.4712         estimate D2E/DX2                !
 ! A27   A(15,13,16)           109.4712         estimate D2E/DX2                !
 ! A28   A(8,17,18)            109.4712         estimate D2E/DX2                !
 ! A29   A(8,17,19)            109.4712         estimate D2E/DX2                !
 ! A30   A(8,17,20)            109.4712         estimate D2E/DX2                !
 ! A31   A(18,17,19)           109.4713         estimate D2E/DX2                !
 ! A32   A(18,17,20)           109.4712         estimate D2E/DX2                !
 ! A33   A(19,17,20)           109.4712         estimate D2E/DX2                !
 ! A34   A(7,21,22)            109.4712         estimate D2E/DX2                !
 ! A35   A(7,21,26)            109.4712         estimate D2E/DX2                !
 ! A36   A(7,21,30)            109.4712         estimate D2E/DX2                !
 ! A37   A(22,21,26)           109.4712         estimate D2E/DX2                !
 ! A38   A(22,21,30)           109.4713         estimate D2E/DX2                !
 ! A39   A(26,21,30)           109.4712         estimate D2E/DX2                !
 ! A40   A(21,22,23)           109.4712         estimate D2E/DX2                !
 ! A41   A(21,22,24)           109.4712         estimate D2E/DX2                !
 ! A42   A(21,22,25)           109.4712         estimate D2E/DX2                !
 ! A43   A(23,22,24)           109.4713         estimate D2E/DX2                !
 ! A44   A(23,22,25)           109.4712         estimate D2E/DX2                !
 ! A45   A(24,22,25)           109.4712         estimate D2E/DX2                !
 ! A46   A(21,26,27)           109.4712         estimate D2E/DX2                !
 ! A47   A(21,26,28)           109.4712         estimate D2E/DX2                !
 ! A48   A(21,26,29)           109.4712         estimate D2E/DX2                !
 ! A49   A(27,26,28)           109.4713         estimate D2E/DX2                !
 ! A50   A(27,26,29)           109.4712         estimate D2E/DX2                !
 ! A51   A(28,26,29)           109.4712         estimate D2E/DX2                !
 ! A52   A(21,30,31)           109.4712         estimate D2E/DX2                !
 ! A53   A(21,30,32)           109.4712         estimate D2E/DX2                !
 ! A54   A(21,30,33)           109.4712         estimate D2E/DX2                !
 ! A55   A(31,30,32)           109.4713         estimate D2E/DX2                !
 ! A56   A(31,30,33)           109.4712         estimate D2E/DX2                !
 ! A57   A(32,30,33)           109.4712         estimate D2E/DX2                !
 ! D1    D(2,1,3,4)             27.1875         estimate D2E/DX2                !
 ! D2    D(6,1,3,4)           -152.812          estimate D2E/DX2                !
 ! D3    D(2,1,6,8)             20.5405         estimate D2E/DX2                !
 ! D4    D(3,1,6,8)           -159.46           estimate D2E/DX2                !
 ! D5    D(1,3,4,5)             -0.0095         estimate D2E/DX2                !
 ! D6    D(1,3,4,7)            179.9878         estimate D2E/DX2                !
 ! D7    D(3,4,7,21)           179.3271         estimate D2E/DX2                !
 ! D8    D(5,4,7,21)            -0.6758         estimate D2E/DX2                !
 ! D9    D(1,6,8,9)            -65.7493         estimate D2E/DX2                !
 ! D10   D(1,6,8,13)            54.2507         estimate D2E/DX2                !
 ! D11   D(1,6,8,17)           174.2507         estimate D2E/DX2                !
 ! D12   D(4,7,21,22)          -59.9865         estimate D2E/DX2                !
 ! D13   D(4,7,21,26)           60.0135         estimate D2E/DX2                !
 ! D14   D(4,7,21,30)         -179.9865         estimate D2E/DX2                !
 ! D15   D(6,8,9,10)           100.2293         estimate D2E/DX2                !
 ! D16   D(6,8,9,11)          -139.7706         estimate D2E/DX2                !
 ! D17   D(6,8,9,12)           -19.7707         estimate D2E/DX2                !
 ! D18   D(13,8,9,10)          -19.7707         estimate D2E/DX2                !
 ! D19   D(13,8,9,11)          100.2294         estimate D2E/DX2                !
 ! D20   D(13,8,9,12)         -139.7707         estimate D2E/DX2                !
 ! D21   D(17,8,9,10)         -139.7707         estimate D2E/DX2                !
 ! D22   D(17,8,9,11)          -19.7707         estimate D2E/DX2                !
 ! D23   D(17,8,9,12)          100.2293         estimate D2E/DX2                !
 ! D24   D(6,8,13,14)           28.6584         estimate D2E/DX2                !
 ! D25   D(6,8,13,15)          148.6584         estimate D2E/DX2                !
 ! D26   D(6,8,13,16)          -91.3416         estimate D2E/DX2                !
 ! D27   D(9,8,13,14)          148.6584         estimate D2E/DX2                !
 ! D28   D(9,8,13,15)          -91.3416         estimate D2E/DX2                !
 ! D29   D(9,8,13,16)           28.6584         estimate D2E/DX2                !
 ! D30   D(17,8,13,14)         -91.3416         estimate D2E/DX2                !
 ! D31   D(17,8,13,15)          28.6584         estimate D2E/DX2                !
 ! D32   D(17,8,13,16)         148.6584         estimate D2E/DX2                !
 ! D33   D(6,8,17,18)           59.0064         estimate D2E/DX2                !
 ! D34   D(6,8,17,19)          179.0065         estimate D2E/DX2                !
 ! D35   D(6,8,17,20)          -60.9935         estimate D2E/DX2                !
 ! D36   D(9,8,17,18)          -60.9935         estimate D2E/DX2                !
 ! D37   D(9,8,17,19)           59.0065         estimate D2E/DX2                !
 ! D38   D(9,8,17,20)          179.0065         estimate D2E/DX2                !
 ! D39   D(13,8,17,18)         179.0064         estimate D2E/DX2                !
 ! D40   D(13,8,17,19)         -60.9935         estimate D2E/DX2                !
 ! D41   D(13,8,17,20)          59.0065         estimate D2E/DX2                !
 ! D42   D(7,21,22,23)          98.0383         estimate D2E/DX2                !
 ! D43   D(7,21,22,24)        -141.9617         estimate D2E/DX2                !
 ! D44   D(7,21,22,25)         -21.9617         estimate D2E/DX2                !
 ! D45   D(26,21,22,23)        -21.9617         estimate D2E/DX2                !
 ! D46   D(26,21,22,24)         98.0383         estimate D2E/DX2                !
 ! D47   D(26,21,22,25)       -141.9617         estimate D2E/DX2                !
 ! D48   D(30,21,22,23)       -141.9618         estimate D2E/DX2                !
 ! D49   D(30,21,22,24)        -21.9617         estimate D2E/DX2                !
 ! D50   D(30,21,22,25)         98.0382         estimate D2E/DX2                !
 ! D51   D(7,21,26,27)          24.1576         estimate D2E/DX2                !
 ! D52   D(7,21,26,28)         144.1576         estimate D2E/DX2                !
 ! D53   D(7,21,26,29)         -95.8424         estimate D2E/DX2                !
 ! D54   D(22,21,26,27)        144.1576         estimate D2E/DX2                !
 ! D55   D(22,21,26,28)        -95.8424         estimate D2E/DX2                !
 ! D56   D(22,21,26,29)         24.1576         estimate D2E/DX2                !
 ! D57   D(30,21,26,27)        -95.8424         estimate D2E/DX2                !
 ! D58   D(30,21,26,28)         24.1576         estimate D2E/DX2                !
 ! D59   D(30,21,26,29)        144.1576         estimate D2E/DX2                !
 ! D60   D(7,21,30,31)          59.9077         estimate D2E/DX2                !
 ! D61   D(7,21,30,32)         179.9077         estimate D2E/DX2                !
 ! D62   D(7,21,30,33)         -60.0923         estimate D2E/DX2                !
 ! D63   D(22,21,30,31)        -60.0923         estimate D2E/DX2                !
 ! D64   D(22,21,30,32)         59.9077         estimate D2E/DX2                !
 ! D65   D(22,21,30,33)        179.9077         estimate D2E/DX2                !
 ! D66   D(26,21,30,31)        179.9077         estimate D2E/DX2                !
 ! D67   D(26,21,30,32)        -60.0923         estimate D2E/DX2                !
 ! D68   D(26,21,30,33)         59.9077         estimate D2E/DX2                !
 --------------------------------------------------------------------------------
 Trust Radius=3.00D-01 FncErr=1.00D-07 GrdErr=1.00D-07
 Number of steps in this run=    167 maximum allowed number of steps=    198.
 GradGradGradGradGradGradGradGradGradGradGradGradGradGradGradGradGradGrad

                          Input orientation:                          
 ---------------------------------------------------------------------
 Center     Atomic      Atomic             Coordinates (Angstroms)
 Number     Number       Type             X           Y           Z
 ---------------------------------------------------------------------
      1          6           0       -1.100710    0.281059    0.858312
      2          8           0       -1.383434    1.311977    0.324651
      3          8           0        0.115516   -0.389799    0.633077
      4          6           0        1.337131    0.194929    0.248612
      5          8           0        1.467809    1.368459    0.067632
      6          8           0       -1.837715   -0.508234    1.795724
      7          8           0        2.285011   -0.870421    0.141582
      8          6           0       -3.225618   -0.173514    1.714546
      9          6           0       -3.431265    1.279845    2.180438
     10          1           0       -3.523883    1.918311    1.326808
     11          1           0       -4.321348    1.342528    2.770966
     12          1           0       -2.591449    1.588499    2.767245
     13          6           0       -3.704234   -0.318253    0.257982
     14          1           0       -3.117417   -1.062975   -0.237936
     15          1           0       -4.733555   -0.610315    0.248135
     16          1           0       -3.594274    0.617967   -0.248280
     17          6           0       -4.036017   -1.121667    2.617794
     18          1           0       -3.691723   -1.033767    3.627069
     19          1           0       -5.072491   -0.860167    2.570465
     20          1           0       -3.906908   -2.129849    2.283430
     21          6           0        3.551322   -0.343783   -0.263397
     22          6           0        3.404779    0.351994   -1.629421
     23          1           0        3.297539    1.406477   -1.482912
     24          1           0        4.274858    0.160922   -2.222173
     25          1           0        2.540124   -0.027987   -2.132297
     26          6           0        4.041422    0.675439    0.781873
     27          1           0        3.585494    0.464661    1.726649
     28          1           0        5.105057    0.606518    0.875843
     29          1           0        3.774239    1.663298    0.469386
     30          6           0        4.571483   -1.491632   -0.378776
     31          1           0        4.230172   -2.200609   -1.103869
     32          1           0        5.518590   -1.097785   -0.683361
     33          1           0        4.674500   -1.974036    0.570737
 ---------------------------------------------------------------------
                    Distance matrix (angstroms):
                    1          2          3          4          5
     1  C    0.000000
     2  O    1.194788   0.000000
     3  O    1.407120   2.288672   0.000000
     4  C    2.514403   2.941947   1.407858   0.000000
     5  O    2.899122   2.863361   2.289082   1.194573   0.000000
     6  O    1.430000   2.384029   2.276156   3.601061   4.175496
     7  O    3.647288   4.272453   2.275801   1.430000   2.384506
     8  C    2.335595   2.744473   3.518455   4.806598   5.207520
     9  C    2.859559   2.763800   4.214462   5.258003   5.335985
    10  H    2.961730   2.439976   4.365072   5.268966   5.177340
    11  H    3.893259   3.823184   5.220851   6.300606   6.389290
    12  H    2.752404   2.738984   3.974417   4.870246   4.879949
    13  C    2.738230   2.836936   3.838790   5.067426   5.443461
    14  H    2.659942   2.993928   3.415214   4.654251   5.198995
    15  H    3.790043   3.863208   4.869322   6.123859   6.511916
    16  H    2.748802   2.386989   3.943973   4.974396   5.127156
    17  C    3.698573   4.268177   4.659395   6.018071   6.557146
    18  H    4.013493   4.662261   4.886077   6.181670   6.712753
    19  H    4.473132   4.834360   5.557889   6.898368   7.348910
    20  H    3.964616   4.695839   4.683090   6.086462   6.784947
    21  C    4.825978   5.238239   3.551133   2.335595   2.717053
    22  C    5.147163   5.259938   4.060592   2.797650   2.768581
    23  H    5.108081   5.018736   4.222474   2.882572   2.398654
    24  H    6.196818   6.310903   5.075024   3.838772   3.818491
    25  H    4.721750   4.819377   3.695528   2.676865   2.817731
    26  C    5.157800   5.481176   4.070578   2.797936   2.759329
    27  H    4.769510   5.231996   3.737211   2.704160   2.837917
    28  H    6.214321   6.549962   5.093830   3.841886   3.803068
    29  H    5.082025   5.171650   4.198602   2.853830   2.359651
    30  C    6.070140   6.619370   4.700375   3.701234   4.244077
    31  H    6.198962   6.774326   4.819378   3.992178   4.662757
    32  H    6.934919   7.379767   5.606020   4.474850   4.801580
    33  H    6.206545   6.896158   4.826803   3.993269   4.659211
                    6          7          8          9         10
     6  O    0.000000
     7  O    4.456931   0.000000
     8  C    1.430000   5.772947   0.000000
     9  C    2.425826   6.438663   1.540000   0.000000
    10  H    2.991849   6.551719   2.148263   1.070000   0.000000
    11  H    3.247283   7.446796   2.148263   1.070000   1.747303
    12  H    2.430690   6.059723   2.148263   1.070000   1.747303
    13  C    2.425826   6.015770   1.540000   2.514809   2.485383
    14  H    2.465998   5.419164   2.148263   3.381692   3.391416
    15  H    3.285018   7.024192   2.148263   3.000410   3.003463
    16  H    2.920921   6.077275   2.148263   2.522563   2.043710
    17  C    2.425826   6.793390   1.540000   2.514810   3.342214
    18  H    2.658449   6.920740   2.148263   2.741054   3.746215
    19  H    3.344825   7.748058   2.148263   2.724959   3.415379
    20  H    2.673771   6.671846   2.148263   3.444251   4.177252
    21  C    5.771373   1.430000   7.061739   7.573970   7.596337
    22  C    6.321025   2.425826   7.444490   7.880827   7.694088
    23  H    6.386424   2.974636   7.434492   7.662439   7.395153
    24  H    7.345394   3.257376   8.477425   8.945351   8.746658
    25  H    5.901310   2.438299   6.932759   7.481149   7.247458
    26  C    6.082206   2.425826   7.375667   7.626424   7.686060
    27  H    5.510217   2.446658   6.840954   7.078513   7.267476
    28  H    7.091611   3.266978   8.409044   8.661647   8.739724
    29  H    6.161879   2.957192   7.343180   7.415796   7.352740
    30  C    6.839104   2.425826   8.180111   8.847296   8.948278
    31  H    6.934770   2.665371   8.224438   9.033153   9.110382
    32  H    7.785156   3.344886   9.114022   9.693006   9.741864
    33  H    6.786613   2.666795   8.183033   8.881571   9.106892
                   11         12         13         14         15
    11  H    0.000000
    12  H    1.747303   0.000000
    13  C    3.074754   3.342213   0.000000
    14  H    4.036011   4.042038   1.070000   0.000000
    15  H    3.216860   3.971060   1.070000   1.747303   0.000000
    16  H    3.188961   3.322797   1.070000   1.747303   1.747303
    17  C    2.485384   3.074754   2.514809   3.000410   2.522563
    18  H    2.603097   2.970888   3.444250   3.907549   3.561168
    19  H    2.335869   3.491455   2.741054   3.427909   2.360195
    20  H    3.530844   3.973741   2.724958   2.849351   2.671097
    21  C    8.604065   7.117031   7.274309   6.707456   8.304932
    22  C    8.946374   7.537531   7.385769   6.817435   8.407363
    23  H    8.726225   7.264788   7.418236   6.985687   8.459459
    24  H   10.011113   8.606883   8.369389   7.751184   9.372765
    25  H    8.544009   7.276783   6.692510   6.055376   7.675413
    26  C    8.621915   6.983578   7.826690   7.437142   8.884721
    27  H    8.023677   6.363998   7.477303   7.149985   8.517520
    28  H    9.643149   7.986106   8.879221   8.463852   9.933428
    29  H    8.422511   6.768141   7.739431   7.444985   8.809134
    30  C    9.850674   8.407868   8.382707   7.702128   9.367682
    31  H   10.034773   8.710762   8.267569   7.485394   9.203551
    32  H   10.710363   9.213877   9.303455   8.647557  10.305911
    33  H    9.836965   8.385124   8.546497   7.886568   9.511851
                   16         17         18         19         20
    16  H    0.000000
    17  C    3.381692   0.000000
    18  H    4.213792   1.070000   0.000000
    19  H    3.509320   1.070000   1.747303   0.000000
    20  H    3.749372   1.070000   1.747303   1.747303   0.000000
    21  C    7.210044   8.153164   8.250667   9.092171   8.080937
    22  C    7.138980   8.693444   8.939316   9.537950   8.656253
    23  H    7.045789   8.774301   8.995359   9.572092   8.865381
    24  H    8.125785   9.702626   9.955266  10.553906   9.617139
    25  H    6.449621   8.185666   8.545045   8.986679   8.092013
    26  C    7.705087   8.476156   8.415347   9.413849   8.561557
    27  H    7.448014   7.835688   7.669079   8.799312   7.948432
    28  H    8.771667   9.464685   9.361791  10.421391   9.522842
    29  H    7.476814   8.565734   8.543168   9.436474   8.756640
    30  C    8.434870   9.121698   9.194401  10.104603   8.909420
    31  H    8.360524   9.129336   9.300522  10.091435   8.814242
    32  H    9.283178  10.108843  10.169256  11.082186   9.935140
    33  H    8.704130   8.988330   8.956503  10.012165   8.752037
                   21         22         23         24         25
    21  C    0.000000
    22  C    1.540000   0.000000
    23  H    2.148263   1.070000   0.000000
    24  H    2.148263   1.070000   1.747303   0.000000
    25  H    2.148263   1.070000   1.747303   1.747303   0.000000
    26  C    1.540000   2.514809   2.493397   3.056716   3.352773
    27  H    2.148263   3.362819   3.357264   4.020034   4.028270
    28  H    2.148263   3.038432   3.077464   3.238130   4.003796
    29  H    2.148263   2.502200   2.025998   3.122858   3.339497
    30  C    1.540000   2.514810   3.352774   2.493398   3.056716
    31  H    2.148263   2.733726   3.744936   2.613317   2.938403
    32  H    2.148263   2.732230   3.441465   2.345027   3.480681
    33  H    2.148263   3.444314   4.188241   3.538093   3.955889
                   26         27         28         29         30
    26  C    0.000000
    27  H    1.070000   0.000000
    28  H    1.070000   1.747303   0.000000
    29  H    1.070000   1.747303   1.747303   0.000000
    30  C    2.514809   3.038432   2.502200   3.362820   0.000000
    31  H    3.444313   3.940952   3.544663   4.196758   1.070000
    32  H    2.733726   3.462115   2.346651   3.463403   1.070000
    33  H    2.732230   2.910207   2.633956   3.748458   1.070000
                   31         32         33
    31  H    0.000000
    32  H    1.747303   0.000000
    33  H    1.747303   1.747303   0.000000
 Stoichiometry    C10H18O5
 Framework group  C1[X(C10H18O5)]
 Deg. of freedom    93
 Full point group                 C1      NOp   1
 Largest Abelian subgroup         C1      NOp   1
 Largest concise Abelian subgroup C1      NOp   1
                         Standard orientation:                         
 ---------------------------------------------------------------------
 Center     Atomic      Atomic             Coordinates (Angstroms)
 Number     Number       Type             X           Y           Z
 ---------------------------------------------------------------------
      1          6           0       -1.260607   -0.257196    0.031144
      2          8           0       -1.410005   -1.415904    0.281336
      3          8           0       -0.014456    0.390627    0.117293
      4          6           0        1.252406   -0.204589   -0.033843
      5          8           0        1.401381   -1.368128   -0.259649
      6          8           0       -2.207472    0.728027   -0.390380
      7          8           0        2.216977    0.837446    0.135469
      8          6           0       -3.527794    0.298266   -0.048395
      9          6           0       -3.884823   -0.959935   -0.861451
     10          1           0       -3.755453   -1.828373   -0.249913
     11          1           0       -4.903309   -0.899187   -1.183780
     12          1           0       -3.243771   -1.026450   -1.715576
     13          6           0       -3.588024   -0.028109    1.455417
     14          1           0       -2.871895    0.570015    1.979160
     15          1           0       -4.568959    0.182797    1.827152
     16          1           0       -3.365067   -1.063907    1.604795
     17          6           0       -4.532421    1.420024   -0.370861
     18          1           0       -4.478240    1.658768   -1.412478
     19          1           0       -5.522306    1.092061   -0.131136
     20          1           0       -4.294737    2.288647    0.206980
     21          6           0        3.533712    0.294234    0.008852
     22          6           0        3.749575   -0.784947    1.086058
     23          1           0        3.583093   -1.752317    0.660173
     24          1           0        4.752274   -0.725322    1.454758
     25          1           0        3.063341   -0.627020    1.891689
     26          6           0        3.697665   -0.334222   -1.387486
     27          1           0        3.006321    0.119753   -2.066346
     28          1           0        4.696692   -0.174078   -1.735623
     29          1           0        3.503897   -1.384996   -1.330673
     30          6           0        4.571916    1.416876    0.191629
     31          1           0        4.456944    1.854606    1.161203
     32          1           0        5.557198    1.010127    0.098488
     33          1           0        4.422956    2.165911   -0.557808
 ---------------------------------------------------------------------
 Rotational constants (GHZ):      1.6887077      0.2346160      0.2267799
 Standard basis: VSTO-6G (5D, 7F)
 There are    78 symmetry adapted cartesian basis functions of A   symmetry.
 There are    78 symmetry adapted basis functions of A   symmetry.
    78 basis functions,   468 primitive gaussians,    78 cartesian basis functions
    44 alpha electrons       44 beta electrons
       nuclear repulsion energy       650.6402586090 Hartrees.
 Integral buffers will be    262144 words long.
 Regular integral format.
 Two-electron integral symmetry is turned off.
 Do NDO integrals.
 One-electron integrals computed using PRISM.
 NBasis=    78 RedAO= F EigKep=  0.00D+00  NBF=    78
 NBsUse=    78 1.00D-04 EigRej=  0.00D+00 NBFU=    78
 Simple Huckel Guess.
 Overlap will be assumed to be unity.
 Keep J ints in memory in canonical form, NReq=928216.
 Requested convergence on RMS density matrix=1.00D-08 within 128 cycles.
 Requested convergence on MAX density matrix=1.00D-06.
 Requested convergence on             energy=1.00D-06.
 No special actions if energy rises.
 SCF Done:  E(RPM6) = -0.357089231073     A.U. after   14 cycles
            NFock= 13  Conv=0.68D-08     -V/T= 0.9936

 **********************************************************************

            Population analysis using the SCF density.

 **********************************************************************

 Orbital symmetries:
       Occupied  (A) (A) (A) (A) (A) (A) (A) (A) (A) (A) (A) (A)
                 (A) (A) (A) (A) (A) (A) (A) (A) (A) (A) (A) (A)
                 (A) (A) (A) (A) (A) (A) (A) (A) (A) (A) (A) (A)
                 (A) (A) (A) (A) (A) (A) (A) (A)
       Virtual   (A) (A) (A) (A) (A) (A) (A) (A) (A) (A) (A) (A)
                 (A) (A) (A) (A) (A) (A) (A) (A) (A) (A) (A) (A)
                 (A) (A) (A) (A) (A) (A) (A) (A) (A) (A)
 The electronic state is 1-A.
 Alpha  occ. eigenvalues --   -1.22131  -1.21296  -1.15918  -1.15332  -1.13392
 Alpha  occ. eigenvalues --   -1.07339  -1.05958  -0.93837  -0.92907  -0.92323
 Alpha  occ. eigenvalues --   -0.92212  -0.92003  -0.81010  -0.74243  -0.73257
 Alpha  occ. eigenvalues --   -0.68812  -0.66739  -0.64516  -0.62691  -0.61773
 Alpha  occ. eigenvalues --   -0.60336  -0.58494  -0.57651  -0.56736  -0.56345
 Alpha  occ. eigenvalues --   -0.55332  -0.53175  -0.52403  -0.51908  -0.51718
 Alpha  occ. eigenvalues --   -0.51487  -0.49016  -0.48818  -0.48804  -0.48672
 Alpha  occ. eigenvalues --   -0.47556  -0.47241  -0.46671  -0.46342  -0.45805
 Alpha  occ. eigenvalues --   -0.43593  -0.42390  -0.41939  -0.41841
 Alpha virt. eigenvalues --   -0.04234  -0.00212   0.02567   0.03456   0.08536
 Alpha virt. eigenvalues --    0.09674   0.09895   0.10476   0.12291   0.12418
 Alpha virt. eigenvalues --    0.12497   0.12568   0.12874   0.12911   0.15282
 Alpha virt. eigenvalues --    0.16359   0.20214   0.20226   0.20492   0.20599
 Alpha virt. eigenvalues --    0.20619   0.20707   0.20814   0.20862   0.20970
 Alpha virt. eigenvalues --    0.21012   0.21544   0.21565   0.23873   0.23892
 Alpha virt. eigenvalues --    0.24591   0.24695   0.25195   0.25199
     Molecular Orbital Coefficients:
                           1         2         3         4         5
                           O         O         O         O         O
     Eigenvalues --    -1.22131  -1.21296  -1.15918  -1.15332  -1.13392
   1 1   C  1S          0.33009  -0.32460   0.00338   0.06610   0.20438
   2        1PX        -0.00573   0.07201  -0.20602  -0.09847   0.15970
   3        1PY        -0.23790   0.20433   0.05036   0.20005   0.19428
   4        1PZ         0.05110  -0.04695  -0.03270  -0.05642  -0.02306
   5 2   O  1S          0.50214  -0.48369  -0.03318  -0.21662  -0.14710
   6        1PX         0.03591  -0.01181  -0.06291  -0.04065   0.03393
   7        1PY         0.23892  -0.23131  -0.00285  -0.03843   0.01251
   8        1PZ        -0.05154   0.04846  -0.00315   0.00591   0.00165
   9 3   O  1S          0.08979   0.00340  -0.32556   0.01931   0.74912
  10        1PX        -0.00112   0.09161  -0.00060  -0.05609   0.00460
  11        1PY        -0.11799   0.00016   0.09691  -0.00363  -0.13944
  12        1PZ        -0.00921  -0.01453   0.01276  -0.01223  -0.03478
  13 4   C  1S          0.32328   0.33275   0.00459  -0.04553   0.20422
  14        1PX         0.00665   0.07091   0.21610  -0.09755  -0.15382
  15        1PY        -0.23844  -0.20475   0.07476  -0.18175   0.20890
  16        1PZ        -0.04323  -0.04361   0.00702  -0.03490   0.04295
  17 5   O  1S          0.49446   0.48675  -0.05527   0.20083  -0.17298
  18        1PX        -0.03539  -0.01170   0.06818  -0.03945  -0.03102
  19        1PY         0.23647   0.23607  -0.00731   0.03985   0.00496
  20        1PZ         0.04657   0.04419  -0.00368   0.00750   0.00152
  21 6   O  1S          0.02980  -0.11197   0.40880   0.50609   0.22159
  22        1PX        -0.00149   0.00477  -0.08923  -0.05699   0.04620
  23        1PY        -0.05975   0.08344  -0.10503  -0.11803  -0.05158
  24        1PZ         0.02116  -0.03607   0.05908   0.07147   0.03470
  25 7   O  1S          0.02936   0.11930   0.44896  -0.45191   0.26496
  26        1PX         0.00352   0.00351   0.09124  -0.05050  -0.04180
  27        1PY        -0.06188  -0.09291  -0.12946   0.11945  -0.06899
  28        1PZ        -0.01125  -0.01764  -0.02577   0.02213  -0.01149
  29 8   C  1S          0.05181  -0.08987   0.26929   0.27375   0.04618
  30        1PX         0.02329  -0.04282   0.09225   0.10740   0.04515
  31        1PY        -0.01853   0.01817   0.00774   0.01592   0.00874
  32        1PZ         0.00469  -0.00328  -0.01304  -0.01548  -0.00371
  33 9   C  1S          0.03689  -0.05423   0.13350   0.12691   0.01005
  34        1PX         0.01445  -0.01957   0.02760   0.02628   0.00543
  35        1PY         0.00693  -0.01308   0.04661   0.04821   0.00841
  36        1PZ         0.01022  -0.01469   0.03083   0.02879   0.00237
  37 10  H  1S          0.02154  -0.02942   0.05765   0.05201   0.00169
  38 11  H  1S          0.01062  -0.01630   0.04923   0.04710   0.00269
  39 12  H  1S          0.02047  -0.02863   0.05979   0.05704   0.00631
  40 13  C  1S          0.03881  -0.05796   0.13684   0.13421   0.01903
  41        1PX         0.01210  -0.01620   0.01670   0.01725   0.00726
  42        1PY        -0.00418   0.00284   0.01087   0.01459   0.00570
  43        1PZ        -0.01489   0.02359  -0.06006  -0.05987  -0.00929
  44 14  H  1S          0.01968  -0.02889   0.06024   0.06122   0.01330
  45 15  H  1S          0.01124  -0.01743   0.05006   0.04905   0.00539
  46 16  H  1S          0.02525  -0.03398   0.05966   0.05501   0.00534
  47 17  C  1S          0.00882  -0.01998   0.10998   0.11104   0.01004
  48        1PX         0.00380  -0.00917   0.03966   0.04122   0.00731
  49        1PY        -0.00585   0.01026  -0.03668  -0.03589  -0.00305
  50        1PZ         0.00186  -0.00315   0.00994   0.00993   0.00131
  51 18  H  1S          0.00340  -0.00806   0.04584   0.04663   0.00466
  52 19  H  1S          0.00431  -0.00840   0.04321   0.04297   0.00268
  53 20  H  1S          0.00341  -0.00824   0.04602   0.04724   0.00552
  54 21  C  1S          0.05433   0.09441   0.28888  -0.24268   0.06716
  55        1PX        -0.02429  -0.04571  -0.10088   0.09533  -0.05292
  56        1PY        -0.01816  -0.01737   0.01562  -0.02060   0.01325
  57        1PZ        -0.00278  -0.00243   0.00485  -0.00601   0.00366
  58 22  C  1S          0.03909   0.05827   0.14395  -0.11522   0.02366
  59        1PX        -0.01390  -0.01902  -0.02419   0.01944  -0.00748
  60        1PY         0.00529   0.01104   0.04391  -0.03847   0.01243
  61        1PZ        -0.01320  -0.01969  -0.04481   0.03529  -0.00686
  62 23  H  1S          0.02337   0.03216   0.06194  -0.04685   0.00662
  63 24  H  1S          0.01131   0.01748   0.05290  -0.04258   0.00770
  64 25  H  1S          0.02122   0.03044   0.06435  -0.05241   0.01394
  65 26  C  1S          0.03908   0.05876   0.14427  -0.11471   0.02327
  66        1PX        -0.01331  -0.01834  -0.02214   0.01751  -0.00697
  67        1PY         0.00008   0.00318   0.02508  -0.02335   0.00919
  68        1PZ         0.01483   0.02312   0.05836  -0.04737   0.01113
  69 27  H  1S          0.02067   0.03024   0.06431  -0.05185   0.01362
  70 28  H  1S          0.01133   0.01764   0.05292  -0.04231   0.00749
  71 29  H  1S          0.02391   0.03303   0.06241  -0.04673   0.00636
  72 30  C  1S          0.00988   0.02111   0.11766  -0.09868   0.01952
  73        1PX        -0.00439  -0.01002  -0.04385   0.03761  -0.01075
  74        1PY        -0.00632  -0.01084  -0.03880   0.03153  -0.00585
  75        1PZ        -0.00105  -0.00180  -0.00615   0.00489  -0.00081
  76 31  H  1S          0.00384   0.00861   0.04921  -0.04176   0.00915
  77 32  H  1S          0.00471   0.00884   0.04613  -0.03813   0.00634
  78 33  H  1S          0.00384   0.00864   0.04920  -0.04170   0.00912
                           6         7         8         9        10
                           O         O         O         O         O
     Eigenvalues --    -1.07339  -1.05958  -0.93837  -0.92907  -0.92323
   1 1   C  1S         -0.17576   0.08581  -0.23834  -0.00896  -0.10856
   2        1PX         0.01804  -0.11868  -0.09209   0.03615  -0.07601
   3        1PY        -0.12028   0.04391  -0.15177  -0.02138  -0.05289
   4        1PZ         0.03735  -0.04002  -0.01240  -0.00584  -0.03237
   5 2   O  1S          0.04835   0.02538   0.17790   0.04352   0.01933
   6        1PX        -0.00879  -0.01890  -0.01726   0.03460  -0.05208
   7        1PY        -0.04034   0.03205  -0.07394  -0.00377  -0.04261
   8        1PZ         0.01228  -0.01579  -0.00674  -0.00823  -0.01741
   9 3   O  1S         -0.00079  -0.17095   0.00490  -0.00007   0.00531
  10        1PX         0.17765   0.00140   0.38804  -0.02533   0.19829
  11        1PY         0.00404   0.03738   0.00629  -0.01322   0.00390
  12        1PZ         0.00745  -0.00342  -0.00529  -0.00165  -0.01088
  13 4   C  1S          0.17907   0.08563   0.23599  -0.04239   0.11564
  14        1PX         0.02127   0.11718  -0.10133  -0.02714  -0.07338
  15        1PY         0.12245   0.05052   0.13960  -0.04255   0.05177
  16        1PZ         0.02475   0.00370   0.03107  -0.00699   0.01176
  17 5   O  1S         -0.04258   0.02583  -0.16703   0.07587  -0.03668
  18        1PX        -0.00922   0.01764  -0.02062  -0.04022  -0.04093
  19        1PY         0.04347   0.03473   0.06715  -0.01062   0.03785
  20        1PZ         0.00925   0.00524   0.01410  -0.00054   0.00875
  21 6   O  1S         -0.27476   0.32951   0.22480   0.08139  -0.00188
  22        1PX        -0.14581   0.09423  -0.21017  -0.05235  -0.04612
  23        1PY         0.06186  -0.06470   0.06015   0.04818  -0.05881
  24        1PZ        -0.02370   0.01949  -0.05877  -0.03397  -0.04909
  25 7   O  1S          0.27834   0.31850  -0.20982   0.12242  -0.02402
  26        1PX        -0.14970  -0.09501  -0.20392   0.09025  -0.06122
  27        1PY        -0.06404  -0.06289  -0.06493   0.07441   0.01482
  28        1PZ        -0.00787  -0.01001  -0.00596   0.01257   0.00725
  29 8   C  1S          0.26424  -0.24712   0.02581   0.00960   0.01100
  30        1PX        -0.12541   0.15510   0.07033  -0.04305   0.06760
  31        1PY        -0.01271   0.01767   0.13119   0.15606  -0.22774
  32        1PZ         0.01724  -0.02721  -0.15002  -0.11357  -0.11050
  33 9   C  1S          0.20704  -0.20823  -0.06635  -0.10461   0.46174
  34        1PX        -0.01118   0.01936   0.01002  -0.01900   0.02957
  35        1PY         0.05084  -0.04833   0.03253   0.03912  -0.03531
  36        1PZ         0.03959  -0.03885  -0.03741  -0.03581  -0.01041
  37 10  H  1S          0.08951  -0.08954  -0.05981  -0.08269   0.22477
  38 11  H  1S          0.10099  -0.10567  -0.02655  -0.02602   0.19273
  39 12  H  1S          0.07376  -0.07169  -0.01208  -0.03974   0.22758
  40 13  C  1S          0.20304  -0.21223  -0.31831  -0.27530  -0.11617
  41        1PX        -0.02552   0.03086   0.00138  -0.01967   0.01744
  42        1PY         0.00930  -0.00985   0.02569   0.04039  -0.07152
  43        1PZ        -0.05927   0.05539  -0.01722  -0.01251  -0.02463
  44 14  H  1S          0.07197  -0.07612  -0.14508  -0.12461  -0.07729
  45 15  H  1S          0.10010  -0.10780  -0.14678  -0.11072  -0.08054
  46 16  H  1S          0.08604  -0.08873  -0.16045  -0.15236  -0.00748
  47 17  C  1S          0.24772  -0.26276   0.15082   0.34062  -0.39180
  48        1PX         0.02724  -0.02021   0.03019   0.00070   0.00980
  49        1PY        -0.05890   0.05849   0.01460   0.02337  -0.05058
  50        1PZ         0.01926  -0.02082  -0.03350  -0.02522  -0.03542
  51 18  H  1S          0.10026  -0.10603   0.08871   0.17168  -0.16495
  52 19  H  1S          0.11699  -0.12735   0.04587   0.14804  -0.17985
  53 20  H  1S          0.09975  -0.10633   0.06755   0.15775  -0.21137
  54 21  C  1S         -0.26887  -0.24489  -0.02050   0.01276  -0.00969
  55        1PX        -0.12714  -0.15193   0.08558   0.03635   0.08113
  56        1PY         0.01997   0.02748  -0.15039   0.23558   0.09528
  57        1PZ         0.00665   0.00797  -0.02683   0.04522   0.02576
  58 22  C  1S         -0.20758  -0.20685   0.17150  -0.24179  -0.08262
  59        1PX        -0.01849  -0.02450   0.01051   0.02104   0.02328
  60        1PY        -0.04117  -0.03814  -0.02816   0.05397   0.02494
  61        1PZ         0.04870   0.04491  -0.01183   0.02443   0.01481
  62 23  H  1S         -0.08941  -0.08819   0.09537  -0.14872  -0.05818
  63 24  H  1S         -0.10176  -0.10493   0.08053  -0.08859  -0.01831
  64 25  H  1S         -0.07323  -0.07229   0.06951  -0.10424  -0.03716
  65 26  C  1S         -0.20854  -0.20646   0.16433  -0.25188  -0.11548
  66        1PX        -0.02047  -0.02666   0.01118   0.02054   0.02326
  67        1PY        -0.02151  -0.01994  -0.03095   0.05862   0.02656
  68        1PZ        -0.05923  -0.05444   0.00138  -0.00352  -0.00246
  69 27  H  1S         -0.07433  -0.07253   0.06527  -0.10831  -0.05347
  70 28  H  1S         -0.10224  -0.10494   0.07788  -0.09456  -0.03463
  71 29  H  1S         -0.08930  -0.08730   0.09191  -0.15284  -0.07175
  72 30  C  1S         -0.25244  -0.26010  -0.09574   0.41166   0.27148
  73        1PX         0.02958   0.02185   0.03221  -0.00654   0.01733
  74        1PY         0.06125   0.05979  -0.02322   0.03949   0.01935
  75        1PZ         0.01056   0.01033  -0.00425   0.00821   0.00606
  76 31  H  1S         -0.10196  -0.10524  -0.05184   0.20059   0.13041
  77 32  H  1S         -0.11912  -0.12586  -0.02114   0.17564   0.12885
  78 33  H  1S         -0.10200  -0.10518  -0.05237   0.19971   0.12775
                          11        12        13        14        15
                           O         O         O         O         O
     Eigenvalues --    -0.92212  -0.92003  -0.81010  -0.74243  -0.73257
   1 1   C  1S          0.01268  -0.16072   0.26764  -0.08129  -0.18234
   2        1PX         0.00665  -0.08644  -0.12231  -0.12227  -0.01204
   3        1PY         0.00484  -0.07571   0.10133   0.01557   0.05269
   4        1PZ        -0.00892   0.03854  -0.08174  -0.10211  -0.01581
   5 2   O  1S         -0.00531   0.08285  -0.17602   0.12425   0.28894
   6        1PX         0.00169  -0.03354  -0.03687  -0.07650  -0.05231
   7        1PY         0.00282  -0.04573   0.14990  -0.10653  -0.23427
   8        1PZ        -0.00592   0.03413  -0.05915  -0.03343   0.04947
   9 3   O  1S          0.00175  -0.00913  -0.21500  -0.00245   0.16416
  10        1PX        -0.02023   0.26708   0.00557   0.22532  -0.00163
  11        1PY         0.00193   0.00770  -0.02426  -0.00284   0.19099
  12        1PZ        -0.01621   0.00626  -0.04803  -0.06738   0.01461
  13 4   C  1S         -0.01230   0.16065   0.26161   0.06724  -0.18717
  14        1PX         0.00442  -0.08490   0.11659  -0.15020   0.00751
  15        1PY         0.00494   0.07773   0.11420  -0.04140   0.05609
  16        1PZ        -0.05695   0.01405   0.00424  -0.02572   0.00148
  17 5   O  1S          0.00511  -0.06658  -0.17556  -0.11914   0.29892
  18        1PX         0.00263  -0.04344   0.03364  -0.09297   0.05149
  19        1PY         0.00366   0.05349   0.15409   0.08719  -0.24071
  20        1PZ        -0.04357   0.00776   0.02137   0.00562  -0.05347
  21 6   O  1S         -0.00710   0.07296  -0.08033   0.15881   0.19690
  22        1PX         0.00886  -0.10347   0.38647   0.27281   0.14612
  23        1PY        -0.00571   0.04071  -0.13572   0.03384   0.14793
  24        1PZ        -0.00988   0.06207   0.02237  -0.08594  -0.08302
  25 7   O  1S          0.00567  -0.05857  -0.07927  -0.14891   0.19944
  26        1PX         0.00584  -0.10373  -0.36935   0.29307  -0.13947
  27        1PY         0.01966   0.00369  -0.12159  -0.05053   0.17424
  28        1PZ        -0.10473  -0.00802  -0.01830  -0.02337   0.03184
  29 8   C  1S         -0.00091   0.01355  -0.18093  -0.29815  -0.23950
  30        1PX        -0.01076   0.11037  -0.14291  -0.07639  -0.04352
  31        1PY        -0.01155   0.05936  -0.06455  -0.03413   0.00678
  32        1PZ        -0.02923   0.21523   0.04459   0.01967   0.00107
  33 9   C  1S          0.05404  -0.36853   0.04184   0.08569   0.09295
  34        1PX        -0.00181   0.02377  -0.04044  -0.05685  -0.06005
  35        1PY         0.00036  -0.00774  -0.05289  -0.13501  -0.12539
  36        1PZ        -0.00678   0.05371  -0.01697  -0.06212  -0.06559
  37 10  H  1S          0.02136  -0.13874   0.03618   0.08781   0.08594
  38 11  H  1S          0.02731  -0.19522   0.04813   0.08487   0.08926
  39 12  H  1S          0.02733  -0.18561   0.01855   0.05858   0.05975
  40 13  C  1S         -0.05323   0.41005   0.03327   0.10973   0.09681
  41        1PX        -0.00297   0.02768  -0.02946  -0.04530  -0.03790
  42        1PY        -0.00403   0.02076  -0.02343  -0.05329  -0.04075
  43        1PZ        -0.00470   0.03379   0.05378   0.16037   0.14894
  44 14  H  1S         -0.02801   0.21253   0.01460   0.06312   0.06178
  45 15  H  1S         -0.02425   0.18149   0.04398   0.10785   0.09546
  46 16  H  1S         -0.02216   0.17744   0.03037   0.09568   0.08413
  47 17  C  1S          0.01109  -0.16717   0.17358   0.11465   0.06173
  48        1PX        -0.00307   0.03110  -0.12323  -0.14973  -0.09485
  49        1PY        -0.00313   0.01648   0.05629   0.10519   0.07950
  50        1PZ        -0.00836   0.06185  -0.00713  -0.02322  -0.02038
  51 18  H  1S          0.00925  -0.10792   0.08865   0.07909   0.05102
  52 19  H  1S          0.00622  -0.08831   0.13673   0.11879   0.06895
  53 20  H  1S          0.00070  -0.04611   0.08944   0.07959   0.05081
  54 21  C  1S          0.00114  -0.01773  -0.17062   0.31214  -0.23718
  55        1PX        -0.01333   0.09706   0.13378  -0.07720   0.04312
  56        1PY         0.05179   0.07869  -0.07414   0.04569   0.00623
  57        1PZ        -0.30457  -0.02228  -0.01590   0.00923   0.00055
  58 22  C  1S         -0.50357  -0.12997   0.03623  -0.09258   0.09563
  59        1PX         0.00274   0.02616   0.03293  -0.04782   0.05052
  60        1PY        -0.01422   0.01794  -0.04580   0.12983  -0.11285
  61        1PZ        -0.06306   0.00469   0.02837  -0.09639   0.09491
  62 23  H  1S         -0.20104  -0.07299   0.03144  -0.09378   0.08693
  63 24  H  1S         -0.24439  -0.04093   0.04368  -0.09153   0.09248
  64 25  H  1S         -0.26062  -0.06443   0.01618  -0.06013   0.05942
  65 26  C  1S          0.51102  -0.01782   0.03184  -0.09774   0.09275
  66        1PX        -0.00857   0.02498   0.03006  -0.04590   0.04379
  67        1PY         0.03282   0.02614  -0.03257   0.08870  -0.07223
  68        1PZ        -0.05341  -0.01102  -0.04290   0.13976  -0.12993
  69 27  H  1S          0.26492  -0.00596   0.01461  -0.06096   0.05919
  70 28  H  1S          0.24414   0.01290   0.04105  -0.09630   0.09027
  71 29  H  1S          0.20712  -0.02836   0.02919  -0.09596   0.08592
  72 30  C  1S         -0.01639   0.26106   0.16516  -0.12570   0.06016
  73        1PX        -0.00369   0.02479   0.11885  -0.16388   0.09520
  74        1PY         0.01481   0.01925   0.04912  -0.10955   0.07720
  75        1PZ        -0.08646  -0.00686   0.00680  -0.01661   0.01251
  76 31  H  1S         -0.04841   0.11874   0.08488  -0.08645   0.05021
  77 32  H  1S         -0.00837   0.12873   0.12981  -0.12790   0.06722
  78 33  H  1S          0.03315   0.12773   0.08465  -0.08638   0.04981
                          16        17        18        19        20
                           O         O         O         O         O
     Eigenvalues --    -0.68812  -0.66739  -0.64516  -0.62691  -0.61773
   1 1   C  1S          0.08939  -0.03129   0.03094  -0.05522  -0.00667
   2        1PX        -0.28394  -0.26078  -0.08389  -0.09207  -0.07418
   3        1PY        -0.06605   0.13416  -0.02179   0.15241  -0.03814
   4        1PZ        -0.12459   0.03899   0.33021   0.06906   0.04490
   5 2   O  1S         -0.19380   0.14967  -0.15928   0.18695  -0.07015
   6        1PX        -0.15825  -0.26178  -0.04789  -0.11610  -0.12422
   7        1PY         0.17983  -0.09680   0.22709  -0.20094   0.08648
   8        1PZ        -0.14130   0.07525   0.24098   0.14498   0.01569
   9 3   O  1S         -0.01806   0.25882   0.00606   0.02294   0.10652
  10        1PX         0.35568   0.02715   0.08804  -0.00810  -0.00908
  11        1PY        -0.01598   0.39405  -0.03738   0.00946   0.11415
  12        1PZ        -0.09476   0.06926   0.42113   0.12285  -0.09804
  13 4   C  1S         -0.09298  -0.03989  -0.00688   0.05481  -0.00705
  14        1PX        -0.33463   0.19365  -0.02670  -0.04076   0.05996
  15        1PY         0.02995   0.13183  -0.03369  -0.17859  -0.00074
  16        1PZ        -0.02971   0.01434   0.35406   0.12330  -0.23297
  17 5   O  1S          0.18707   0.18507   0.05629  -0.22048  -0.06510
  18        1PX        -0.20197   0.22124  -0.00489  -0.05157   0.09989
  19        1PY        -0.19727  -0.14196  -0.11480   0.23186   0.11557
  20        1PZ        -0.06678  -0.03823   0.29569   0.19672  -0.21514
  21 6   O  1S         -0.17153  -0.16285  -0.03048  -0.00491  -0.13412
  22        1PX         0.08598   0.11920  -0.10493   0.18738  -0.21188
  23        1PY        -0.28476  -0.20245   0.02564  -0.04024  -0.10657
  24        1PZ         0.04001   0.14848   0.18619   0.11618   0.08857
  25 7   O  1S          0.19313  -0.14206   0.01157  -0.04300  -0.10896
  26        1PX         0.10887  -0.10783  -0.01037   0.25876   0.16332
  27        1PY         0.30865  -0.19123  -0.01499   0.00062  -0.07819
  28        1PZ         0.03388  -0.03482   0.23147   0.11558  -0.22180
  29 8   C  1S          0.04684   0.10535  -0.15185   0.09226  -0.11898
  30        1PX        -0.00079  -0.03070   0.15454  -0.11376   0.25297
  31        1PY        -0.09322  -0.09697   0.04310  -0.08749   0.03126
  32        1PZ         0.02870   0.06694   0.01091   0.10009  -0.03894
  33 9   C  1S         -0.07587  -0.06337   0.06541  -0.02835   0.02614
  34        1PX         0.06917   0.04619   0.00440  -0.04832   0.15216
  35        1PY         0.05342   0.05884  -0.14373   0.04297  -0.12995
  36        1PZ         0.06637   0.11109  -0.09205   0.13960  -0.10677
  37 10  H  1S         -0.03447  -0.01374   0.07243   0.01254   0.05852
  38 11  H  1S         -0.08520  -0.07591   0.04309  -0.00950  -0.06381
  39 12  H  1S         -0.04175  -0.07185   0.07996  -0.10838   0.13182
  40 13  C  1S         -0.04564  -0.08801  -0.00963  -0.06465   0.01749
  41        1PX         0.02172   0.03823   0.14426  -0.03500   0.20550
  42        1PY        -0.01993  -0.01905  -0.01494  -0.01899  -0.03052
  43        1PZ        -0.08138  -0.16002   0.08858  -0.18044   0.12241
  44 14  H  1S         -0.04709  -0.08095   0.08639  -0.10867   0.12642
  45 15  H  1S         -0.05258  -0.10031  -0.06735  -0.05263  -0.08878
  46 16  H  1S         -0.01606  -0.03365   0.04029  -0.03488   0.07202
  47 17  C  1S          0.04041   0.02158   0.05042  -0.00377   0.05728
  48        1PX        -0.05176  -0.03349  -0.04097  -0.05506   0.00897
  49        1PY         0.01012  -0.02699   0.16688  -0.09099   0.24911
  50        1PZ         0.00207   0.02523  -0.04821   0.07052  -0.09872
  51 18  H  1S          0.01611  -0.01247   0.07713  -0.06298   0.12725
  52 19  H  1S          0.04392   0.03419   0.00943   0.05785  -0.04438
  53 20  H  1S          0.01596  -0.00177   0.08965  -0.03446   0.12674
  54 21  C  1S         -0.03314   0.13631   0.03055  -0.15494  -0.09719
  55        1PX         0.01028   0.04919   0.03078  -0.21484  -0.20617
  56        1PY         0.10626  -0.10022  -0.01055   0.12633   0.04805
  57        1PZ         0.01599  -0.01939   0.06291   0.06967  -0.06909
  58 22  C  1S          0.07235  -0.07422  -0.05070   0.03368   0.05340
  59        1PX         0.06223  -0.03035  -0.04958  -0.13833  -0.08136
  60        1PY        -0.03059   0.06726   0.06252  -0.06008  -0.13616
  61        1PZ         0.08241  -0.13744  -0.03774   0.18844   0.11177
  62 23  H  1S          0.02468  -0.03269  -0.04088   0.01863   0.08458
  63 24  H  1S          0.08437  -0.08075  -0.05953  -0.02630  -0.00321
  64 25  H  1S          0.04354  -0.08264  -0.00861   0.16382   0.09604
  65 26  C  1S          0.06196  -0.07578   0.04240   0.07836  -0.01965
  66        1PX         0.04868  -0.02643   0.08086  -0.07525  -0.21051
  67        1PY         0.00480   0.01329  -0.02370  -0.03565   0.00449
  68        1PZ        -0.08529   0.15450  -0.01902  -0.23902  -0.06188
  69 27  H  1S          0.04498  -0.08410  -0.01922   0.15493   0.11100
  70 28  H  1S          0.07285  -0.08202   0.06820   0.03929  -0.12140
  71 29  H  1S          0.01844  -0.03169   0.01979   0.05680   0.01900
  72 30  C  1S         -0.05302   0.00418  -0.01243   0.03040   0.04744
  73        1PX        -0.06714   0.00731  -0.01636  -0.04096   0.00200
  74        1PY        -0.02228  -0.06374  -0.03868   0.21219   0.22161
  75        1PZ        -0.00292  -0.01164   0.01536   0.05777  -0.00139
  76 31  H  1S         -0.02615  -0.02383  -0.00571   0.10971   0.08113
  77 32  H  1S         -0.05443   0.01790  -0.00708  -0.06425  -0.03272
  78 33  H  1S         -0.02585  -0.02387  -0.02930   0.09003   0.12523
                          21        22        23        24        25
                           O         O         O         O         O
     Eigenvalues --    -0.60336  -0.58494  -0.57651  -0.56736  -0.56345
   1 1   C  1S         -0.00807   0.03859   0.01132   0.00714  -0.02942
   2        1PX        -0.00538  -0.04511   0.00484  -0.03223   0.10426
   3        1PY         0.12941  -0.10136  -0.00891  -0.00029  -0.02221
   4        1PZ         0.25829   0.12750  -0.10059   0.20860   0.02957
   5 2   O  1S          0.08358  -0.15564   0.00860  -0.05264  -0.00781
   6        1PX        -0.02658   0.08191   0.01372  -0.00870   0.06211
   7        1PY        -0.04605   0.28528  -0.03757   0.16522  -0.03513
   8        1PZ         0.32250   0.06246  -0.15839   0.28817   0.06304
   9 3   O  1S         -0.07125  -0.01008  -0.00881   0.00253  -0.08740
  10        1PX        -0.05584   0.21000   0.01478   0.03810   0.01290
  11        1PY        -0.03525   0.00009   0.00909   0.04646  -0.23400
  12        1PZ        -0.00242   0.08435  -0.17027   0.01430  -0.03533
  13 4   C  1S          0.04414  -0.02680  -0.00481   0.00885  -0.02847
  14        1PX        -0.06937  -0.04776  -0.01225  -0.00784  -0.10451
  15        1PY        -0.01476   0.12393   0.02896   0.05508  -0.01071
  16        1PZ        -0.22244  -0.01767  -0.06651  -0.19245  -0.02655
  17 5   O  1S         -0.07483   0.14237   0.01918   0.01436   0.00324
  18        1PX        -0.14944   0.06387   0.00133  -0.00563  -0.05081
  19        1PY         0.16542  -0.22421  -0.01479   0.04573  -0.06007
  20        1PZ        -0.20407  -0.08978  -0.12573  -0.31339  -0.05500
  21 6   O  1S         -0.00374   0.12410  -0.03444   0.05267   0.06834
  22        1PX         0.05434   0.09006   0.00156   0.00876  -0.02477
  23        1PY         0.12086   0.20618   0.05240   0.06741   0.06249
  24        1PZ         0.31943   0.05691   0.16706  -0.02372  -0.00598
  25 7   O  1S          0.10927  -0.10157  -0.00923  -0.01868   0.05746
  26        1PX        -0.07722   0.06122   0.00809   0.00401   0.02569
  27        1PY         0.20381  -0.10344  -0.05013  -0.01120   0.04342
  28        1PZ        -0.21849  -0.15871   0.17491   0.00881   0.00146
  29 8   C  1S          0.00482  -0.00181   0.00001  -0.00981  -0.00743
  30        1PX         0.01740  -0.16347   0.04347  -0.07093   0.06214
  31        1PY         0.04715   0.11637   0.14781  -0.05179  -0.16281
  32        1PZ         0.17946   0.09464   0.21990  -0.14844   0.08534
  33 9   C  1S          0.05206   0.03419   0.05863  -0.02735  -0.01636
  34        1PX        -0.10204  -0.25648  -0.01233  -0.14036   0.05525
  35        1PY        -0.14412  -0.02557  -0.22992   0.17917  -0.13057
  36        1PZ         0.02943  -0.04306  -0.07774   0.01940   0.30329
  37 10  H  1S          0.10074  -0.01733   0.11236  -0.10943   0.19048
  38 11  H  1S          0.07658   0.18693   0.04022   0.08306  -0.11054
  39 12  H  1S         -0.03156  -0.06274   0.07772  -0.09367  -0.14571
  40 13  C  1S         -0.06831  -0.02286  -0.03258   0.01292  -0.02484
  41        1PX         0.10407  -0.15184   0.02586   0.00653   0.02380
  42        1PY         0.06633   0.15687   0.26495  -0.16656  -0.29651
  43        1PZ        -0.14770  -0.04404  -0.11396   0.09309  -0.17445
  44 14  H  1S         -0.00446  -0.03167   0.05565  -0.01786  -0.17311
  45 15  H  1S         -0.11903   0.09421  -0.02306   0.00252  -0.10662
  46 16  H  1S         -0.06313  -0.13746  -0.19050   0.12346   0.17524
  47 17  C  1S          0.00502  -0.04641  -0.00637  -0.00927   0.03278
  48        1PX        -0.00058   0.00209   0.09715  -0.06746  -0.13378
  49        1PY         0.04852  -0.17026   0.12603  -0.17174   0.12539
  50        1PZ         0.11432   0.17320   0.28747  -0.23416   0.00063
  51 18  H  1S         -0.06447  -0.15946  -0.16756   0.12041   0.02794
  52 19  H  1S          0.00928   0.04290  -0.04681   0.04052   0.07311
  53 20  H  1S          0.06888  -0.05129   0.18450  -0.19380   0.06238
  54 21  C  1S          0.03271   0.00188   0.00149   0.00463  -0.00467
  55        1PX         0.15107  -0.15020  -0.01450   0.00300  -0.06697
  56        1PY         0.07199  -0.02740  -0.06454  -0.00385  -0.17747
  57        1PZ        -0.12363  -0.12187   0.25052   0.20087  -0.01045
  58 22  C  1S          0.05301   0.02255  -0.04848  -0.02201  -0.02211
  59        1PX         0.22684  -0.13127  -0.03676   0.07622  -0.04392
  60        1PY        -0.03949  -0.15549   0.22419   0.23165  -0.13986
  61        1PZ         0.04927  -0.01507  -0.06158   0.02169  -0.27515
  62 23  H  1S          0.00079   0.12376  -0.13000  -0.16049   0.15962
  63 24  H  1S          0.17282  -0.08214  -0.05074   0.05265  -0.10755
  64 25  H  1S         -0.05416   0.04206  -0.01929  -0.01573  -0.14866
  65 26  C  1S         -0.03631  -0.03136   0.04399   0.03088  -0.01733
  66        1PX         0.06860  -0.20328  -0.01293  -0.09557  -0.06382
  67        1PY         0.14661   0.01914  -0.22858  -0.15062  -0.27044
  68        1PZ         0.06559   0.07944  -0.10640  -0.12674   0.19133
  69 27  H  1S         -0.02752   0.04408   0.00909   0.07387  -0.14130
  70 28  H  1S          0.02519  -0.15738   0.01181  -0.03487  -0.11831
  71 29  H  1S         -0.11835   0.00979   0.16256   0.11592   0.19059
  72 30  C  1S         -0.04574   0.03772   0.00631  -0.00364   0.03281
  73        1PX        -0.03309  -0.01595   0.01403  -0.03142   0.13260
  74        1PY        -0.15758   0.20307  -0.02948  -0.06008   0.10870
  75        1PZ        -0.11433  -0.07750   0.31244   0.33329   0.05774
  76 31  H  1S         -0.13010   0.02739   0.18330   0.18751   0.06965
  77 32  H  1S          0.00748  -0.04359   0.00030  -0.02593   0.06607
  78 33  H  1S         -0.03810   0.15012  -0.15868  -0.18377   0.02551
                          26        27        28        29        30
                           O         O         O         O         O
     Eigenvalues --    -0.55332  -0.53175  -0.52403  -0.51908  -0.51718
   1 1   C  1S         -0.01005   0.02780   0.00435  -0.03634   0.00627
   2        1PX         0.10062   0.09663  -0.05831   0.00202  -0.07522
   3        1PY        -0.11164   0.11099  -0.07240  -0.03964  -0.02355
   4        1PZ        -0.01961  -0.05393  -0.01946   0.05047  -0.05518
   5 2   O  1S         -0.09314   0.11008  -0.07375  -0.02471  -0.02322
   6        1PX         0.08832   0.14399  -0.10056   0.01551  -0.11981
   7        1PY         0.11546  -0.23172   0.17911   0.03950   0.05227
   8        1PZ        -0.08979   0.04216  -0.07592   0.06583  -0.12352
   9 3   O  1S          0.00787  -0.15907   0.08393   0.02827   0.04248
  10        1PX        -0.01406   0.02123   0.00370  -0.00072   0.04081
  11        1PY         0.00985  -0.26637   0.22223   0.00700   0.05917
  12        1PZ         0.00713  -0.19209  -0.16832  -0.04477   0.01813
  13 4   C  1S          0.00719   0.02135  -0.00372  -0.03796  -0.03970
  14        1PX         0.10595  -0.08520   0.05030  -0.01861  -0.04262
  15        1PY         0.10555   0.14281  -0.04025  -0.02948  -0.07350
  16        1PZ         0.01300   0.02794  -0.09845  -0.10025   0.05659
  17 5   O  1S          0.09716   0.13869  -0.05975  -0.02097  -0.02973
  18        1PX         0.08314  -0.12060   0.08481  -0.04814  -0.07621
  19        1PY        -0.13129  -0.29798   0.16817   0.04227   0.00513
  20        1PZ        -0.03458  -0.03216  -0.09202  -0.15972   0.13199
  21 6   O  1S          0.09355  -0.04030   0.02706   0.00487   0.00264
  22        1PX        -0.06907   0.09865   0.00073  -0.14177   0.07825
  23        1PY         0.13604  -0.03288   0.17474  -0.07562   0.08945
  24        1PZ        -0.09380   0.16409   0.00755   0.02224  -0.00570
  25 7   O  1S         -0.10325  -0.05724   0.01960   0.00459   0.01108
  26        1PX        -0.07224  -0.09241   0.03150   0.13660   0.17855
  27        1PY        -0.17075  -0.16842   0.06936  -0.09545  -0.06959
  28        1PZ        -0.03409   0.03831   0.14948   0.04465  -0.05389
  29 8   C  1S         -0.01674   0.03901  -0.00128  -0.04535   0.01660
  30        1PX         0.03558   0.02035  -0.06262   0.10397  -0.08822
  31        1PY        -0.08698  -0.02669   0.09607  -0.06135   0.08853
  32        1PZ         0.08430   0.05241   0.01856  -0.00107   0.01525
  33 9   C  1S         -0.00542   0.00445  -0.00595  -0.00590  -0.00354
  34        1PX         0.05347  -0.13319  -0.23993   0.04601  -0.18147
  35        1PY        -0.18242   0.06026  -0.08748   0.02748  -0.05735
  36        1PZ         0.27595  -0.00840   0.11931  -0.07536   0.08946
  37 10  H  1S          0.21199  -0.04751   0.08044  -0.04909   0.05708
  38 11  H  1S         -0.10330   0.09580   0.12553  -0.00618   0.09322
  39 12  H  1S         -0.12191  -0.05369  -0.16380   0.05495  -0.12212
  40 13  C  1S         -0.01856   0.01566  -0.00078  -0.01045   0.00445
  41        1PX        -0.09675   0.37061   0.06111  -0.03301   0.04727
  42        1PY        -0.24369   0.05275  -0.10042   0.04418  -0.03027
  43        1PZ        -0.14787  -0.04701  -0.02290   0.03140  -0.01772
  44 14  H  1S         -0.19827   0.18413  -0.01803   0.00589   0.00717
  45 15  H  1S         -0.01573  -0.23818  -0.06572   0.04235  -0.04627
  46 16  H  1S          0.12959   0.01311   0.07940  -0.03966   0.03240
  47 17  C  1S          0.01765   0.00786   0.00026  -0.00934   0.00345
  48        1PX        -0.06356   0.01959   0.20931  -0.39057   0.29613
  49        1PY         0.13088  -0.01954   0.00908  -0.12161   0.05110
  50        1PZ         0.10178  -0.22448  -0.13218   0.14775  -0.14304
  51 18  H  1S         -0.04265   0.15314   0.09797  -0.13847   0.11783
  52 19  H  1S          0.03806  -0.04463  -0.15803   0.30550  -0.22743
  53 20  H  1S          0.10631  -0.08679  -0.01268  -0.07892   0.02284
  54 21  C  1S          0.01874   0.03867  -0.01059  -0.04300  -0.05077
  55        1PX         0.03051  -0.03068   0.03787  -0.11219  -0.14417
  56        1PY         0.11838  -0.05476   0.03784  -0.07717  -0.07276
  57        1PZ         0.02148   0.01387   0.09150   0.05098  -0.05261
  58 22  C  1S          0.01432   0.01118   0.00304  -0.00033  -0.01266
  59        1PX        -0.01094  -0.23813  -0.24290  -0.22939   0.10505
  60        1PY         0.19488   0.10569  -0.00746   0.08877  -0.01250
  61        1PZ         0.27270   0.06882  -0.00787   0.07972   0.02302
  62 23  H  1S         -0.19041  -0.05938   0.03668  -0.05998  -0.02150
  63 24  H  1S          0.07179  -0.13201  -0.16669  -0.12052   0.08450
  64 25  H  1S          0.17251   0.15799   0.10546   0.15046  -0.04376
  65 26  C  1S          0.01408   0.00888  -0.01130  -0.01324  -0.00304
  66        1PX        -0.03071  -0.01933   0.38707   0.18903  -0.17048
  67        1PY         0.27550   0.11189  -0.12735  -0.00958   0.08446
  68        1PZ        -0.18672  -0.02432   0.00332  -0.03248  -0.03312
  69 27  H  1S          0.18219   0.05520  -0.21768  -0.08093   0.11193
  70 28  H  1S          0.05707   0.00884   0.23616   0.13903  -0.08550
  71 29  H  1S         -0.18452  -0.07416   0.03946  -0.02862  -0.04682
  72 30  C  1S         -0.01831   0.00719  -0.00168  -0.00855  -0.00985
  73        1PX        -0.09293   0.00056  -0.10333   0.40444   0.49694
  74        1PY        -0.08037   0.05758   0.05153  -0.14370  -0.21514
  75        1PZ        -0.00675  -0.07284  -0.20065  -0.16970   0.03908
  76 31  H  1S         -0.02663  -0.02487  -0.10528  -0.18356  -0.07992
  77 32  H  1S         -0.04746  -0.01192  -0.06753   0.31264   0.37993
  78 33  H  1S         -0.03305   0.06756   0.13140  -0.03142  -0.17851
                          31        32        33        34        35
                           O         O         O         O         O
     Eigenvalues --    -0.51487  -0.49016  -0.48818  -0.48804  -0.48672
   1 1   C  1S          0.04167  -0.01676   0.00763   0.00210  -0.00980
   2        1PX        -0.02978   0.00727  -0.00521   0.00111   0.00656
   3        1PY         0.11837  -0.04072   0.01889   0.00948  -0.02719
   4        1PZ         0.12918   0.00662   0.00442   0.00309   0.04253
   5 2   O  1S          0.05546  -0.03504   0.01365   0.00766  -0.03237
   6        1PX        -0.06898  -0.04257   0.01568   0.01553  -0.06326
   7        1PY        -0.03049   0.11902  -0.02063  -0.02557   0.08937
   8        1PZ         0.31511   0.07711   0.07167   0.00820  -0.02248
   9 3   O  1S         -0.08123   0.01313  -0.00791  -0.01491   0.00153
  10        1PX         0.01610   0.03174  -0.00237   0.04010   0.02101
  11        1PY        -0.12956   0.05614  -0.01446  -0.07786   0.02117
  12        1PZ         0.00671  -0.02622  -0.13222   0.04025   0.05331
  13 4   C  1S          0.01452  -0.00120   0.00612   0.02025   0.00160
  14        1PX        -0.08853   0.00608   0.00287   0.01194  -0.00553
  15        1PY         0.06009  -0.00438   0.02366   0.05645   0.00666
  16        1PZ        -0.06390   0.00266  -0.01128   0.01495  -0.02278
  17 5   O  1S          0.04571  -0.00313   0.01974   0.05127   0.00226
  18        1PX        -0.14197   0.02126  -0.03125  -0.07241  -0.01818
  19        1PY        -0.08810   0.00706  -0.07741  -0.13587  -0.00122
  20        1PZ        -0.16822   0.02850   0.10945  -0.07317  -0.01820
  21 6   O  1S         -0.01992   0.08246  -0.03265   0.00154   0.06724
  22        1PX         0.14490   0.19346  -0.07695   0.03341   0.15433
  23        1PY        -0.02176   0.21519  -0.10071  -0.01333   0.27329
  24        1PZ        -0.04999  -0.29368   0.06468   0.00741  -0.03698
  25 7   O  1S         -0.00493  -0.00846  -0.03388  -0.10495  -0.00753
  26        1PX        -0.02621   0.04291   0.06322   0.23313   0.02545
  27        1PY        -0.05029  -0.01638  -0.11059  -0.42214  -0.01078
  28        1PZ         0.01803  -0.01139  -0.18971  -0.02904  -0.09115
  29 8   C  1S          0.03892   0.05215  -0.01820   0.00494   0.03435
  30        1PX        -0.10822  -0.18809   0.06407  -0.00875  -0.12897
  31        1PY         0.02306  -0.02236   0.00516  -0.01569   0.02032
  32        1PZ        -0.09432  -0.04819  -0.01589   0.01111   0.06024
  33 9   C  1S          0.01536   0.00982  -0.00475   0.00332   0.00821
  34        1PX         0.27775   0.14827  -0.14027   0.01942   0.42383
  35        1PY         0.07444   0.19879   0.05252   0.00190  -0.19883
  36        1PZ        -0.09142  -0.12363  -0.06869   0.01001   0.14214
  37 10  H  1S         -0.04361  -0.13864  -0.06915   0.00427   0.20390
  38 11  H  1S         -0.17122  -0.07100   0.11071  -0.01447  -0.32288
  39 12  H  1S          0.17013   0.13115  -0.02664   0.00410   0.11382
  40 13  C  1S         -0.00497   0.00442  -0.00207   0.00268   0.00047
  41        1PX        -0.31833   0.45524  -0.09026  -0.01139   0.06461
  42        1PY        -0.07502  -0.17324  -0.10333   0.03723   0.27222
  43        1PZ         0.03419  -0.03300   0.01188  -0.01082  -0.03745
  44 14  H  1S         -0.16473   0.13928  -0.08217   0.00725   0.12963
  45 15  H  1S          0.19549  -0.32928   0.04970   0.00997  -0.01964
  46 16  H  1S          0.01436   0.18092   0.05504  -0.02734  -0.16884
  47 17  C  1S          0.00732   0.02873  -0.01024  -0.00054   0.02322
  48        1PX         0.36587   0.07590  -0.00169   0.02036  -0.02869
  49        1PY         0.16530  -0.02871   0.07676   0.01555  -0.24307
  50        1PZ         0.05151   0.36281   0.06137  -0.03798  -0.25739
  51 18  H  1S          0.00835  -0.24351  -0.03528   0.03005   0.15126
  52 19  H  1S         -0.26852   0.01654  -0.00639  -0.02435   0.03351
  53 20  H  1S          0.17462   0.15025   0.06350  -0.00229  -0.23702
  54 21  C  1S          0.01542  -0.00915  -0.01794  -0.05905  -0.00514
  55        1PX        -0.03029  -0.02131  -0.07252  -0.21778  -0.02257
  56        1PY        -0.06560   0.01739   0.00834   0.00118   0.00733
  57        1PZ         0.03030  -0.00227  -0.08206   0.03193  -0.03596
  58 22  C  1S          0.01151  -0.00360  -0.00186  -0.00789  -0.00067
  59        1PX        -0.21431   0.02305  -0.09149   0.45841  -0.07821
  60        1PY         0.08519  -0.03909  -0.26556   0.05405  -0.09632
  61        1PZ         0.03403  -0.01049  -0.11683   0.05293  -0.02521
  62 23  H  1S         -0.03990   0.02404   0.20050  -0.10201   0.07274
  63 24  H  1S         -0.12628   0.01139  -0.09435   0.32176  -0.06032
  64 25  H  1S          0.12642  -0.02211  -0.05105  -0.18159   0.01088
  65 26  C  1S          0.00163  -0.00312  -0.00081  -0.00769  -0.00063
  66        1PX         0.04697   0.04228   0.33779   0.30755   0.12989
  67        1PY        -0.00775   0.00808   0.27834  -0.14178   0.08577
  68        1PZ         0.01403  -0.01401  -0.03367  -0.01904   0.00233
  69 27  H  1S         -0.02851  -0.01248  -0.05673  -0.18237  -0.03496
  70 28  H  1S          0.03064   0.03161   0.25880   0.19828   0.09412
  71 29  H  1S         -0.00311  -0.01135  -0.22977   0.04889  -0.07302
  72 30  C  1S          0.00292  -0.00228  -0.01247  -0.03699  -0.00285
  73        1PX         0.07787   0.01957   0.01391   0.02663   0.01693
  74        1PY         0.01761  -0.01389   0.00346   0.23351  -0.01871
  75        1PZ        -0.08158   0.02849   0.43083  -0.11232   0.16334
  76 31  H  1S         -0.05090   0.01166   0.27656  -0.02329   0.09911
  77 32  H  1S          0.05030   0.01568  -0.02045  -0.04300   0.00598
  78 33  H  1S          0.04276  -0.02465  -0.22334   0.15539  -0.09559
                          36        37        38        39        40
                           O         O         O         O         O
     Eigenvalues --    -0.47556  -0.47241  -0.46671  -0.46342  -0.45805
   1 1   C  1S         -0.01061  -0.00112  -0.03423  -0.02050  -0.04223
   2        1PX         0.00671   0.00435   0.05149  -0.00522   0.02709
   3        1PY        -0.00052  -0.01186  -0.04424  -0.03238  -0.05912
   4        1PZ         0.00263  -0.03931  -0.00101  -0.03808   0.05040
   5 2   O  1S          0.00979  -0.00374  -0.01255  -0.01130  -0.03794
   6        1PX         0.09111   0.02235   0.36861   0.07686   0.31620
   7        1PY        -0.04856  -0.02839  -0.01934  -0.04770   0.16913
   8        1PZ         0.02491  -0.18672  -0.07859  -0.32637   0.22862
   9 3   O  1S          0.00321   0.00357   0.00636   0.03386   0.03807
  10        1PX         0.01903   0.01501   0.15131  -0.06662   0.01204
  11        1PY        -0.04773   0.00807   0.02089   0.17278   0.41514
  12        1PZ         0.31285   0.06175   0.21338   0.49052  -0.37652
  13 4   C  1S         -0.00074   0.00048   0.02339  -0.04322  -0.03539
  14        1PX         0.00601   0.00338   0.04276  -0.03729  -0.01528
  15        1PY         0.00138  -0.00798   0.03379  -0.05265  -0.05719
  16        1PZ        -0.01824   0.03942  -0.03332  -0.05689   0.02103
[...]
 ,0.00067703,-0.00013260,0.00000136,-0.00051634,-0.00000374,0.00005673,
 -0.00003489,0.00000552,-0.00087286,-0.00063808,-0.00056023,-0.00004149
 ,0.00003862,0.00000081,0.00000121,-0.00003344,-0.00000341,0.00000153,0
 .00000991,-0.00000082,-0.00000062,0.00000490,0.00000023,0.00000341,0.0
 0000889,0.00000236,0.00001609,-0.00001931,0.00000159,-0.00000545,0.000
 00496,-0.00000050,-0.00000257,0.00000407,-0.00000050,-0.00000399,0.000
 00556,-0.00000167,0.00001862,-0.00002119,-0.00000487,-0.00000318,0.000
 00661,0.00000214,-0.00000243,0.00000445,0.00000036,-0.00000621,0.00000
 544,0.00000123,-0.01310434,0.00100713,-0.00517644,-0.00017207,-0.00089
 681,-0.00005846,0.00020471,0.00014402,0.00025472,0.00013559,0.00025386
 ,0.00029004,0.00000207,0.00000715,0.00001767,-0.03091519,-0.03857914,0
 .00332369,-0.01622959,-0.00278871,0.00721405,0.04230762,0.04082068,-0.
 00001186,-0.00000060,0.00013138,0.00000907,0.00002797,-0.00007067,0.00
 009936,-0.00004447,0.00002906,0.00008338,-0.00060226,-0.00044706,0.000
 21007,0.00011148,-0.00012122,0.00004144,0.00000388,-0.00005186,-0.0031
 4243,-0.00117238,-0.00164452,-0.00001522,0.00000802,0.00001915,-0.0000
 0437,-0.00000278,-0.00002416,-0.00000047,-0.00000070,0.00000776,0.0000
 0090,-0.00000027,0.00000470,0.00000499,0.00000121,0.00000844,0.0000045
 8,-0.00000056,-0.00002054,-0.00000215,-0.00000041,0.00000459,-0.000000
 40,-0.00000044,0.00000337,-0.00000327,-0.00000078,0.00000651,-0.000003
 67,0.00000003,-0.00002441,0.00000732,0.00000113,0.00000812,0.00000155,
 0.00000120,0.00000270,0.00000340,-0.00000104,0.00000557,-0.02520079,-0
 .00712268,-0.00205866,0.00116890,0.00034000,-0.00048795,-0.00033527,0.
 00005561,-0.00003602,-0.00037934,0.00019652,-0.00080658,-0.00012592,-0
 .00004829,-0.00000232,0.02127056,0.00386484,-0.03621551,0.01611689,0.0
 0670356,-0.00314247,-0.01735985,-0.00035006,0.04332518,-0.00133490,0.0
 0041462,-0.00011171,0.00027438,-0.00016019,0.00021571,0.00160737,0.000
 66103,-0.00016803,-0.00319658,-0.00598085,-0.00216486,0.00085697,0.002
 54062,0.00115423,0.00051946,0.00002078,-0.00011457,-0.00183375,0.00123
 234,0.00114225,-0.00043256,0.00003296,-0.00001257,0.00015218,-0.000044
 77,-0.00001891,-0.00004322,0.00001846,-0.00000278,-0.00002654,0.000006
 18,0.00000201,-0.00003710,0.00001406,0.00001499,0.00012941,0.00004582,
 0.00004349,-0.00002225,-0.00002432,-0.00000896,-0.00002435,-0.00000417
 ,-0.00000328,-0.00003405,-0.00000678,-0.00001849,0.00015264,0.00003843
 ,-0.00005761,-0.00002381,-0.00000615,0.00002492,-0.00002301,-0.0000002
 1,0.00000033,-0.00002076,-0.00002659,0.00000979,0.00921520,-0.00588913
 ,-0.00301551,-0.00109301,0.00003120,-0.00000340,0.00038956,0.00005056,
 -0.00039354,0.00019312,-0.00003437,0.00020196,0.00011973,-0.00003641,-
 0.00006695,-0.06733598,0.06645485,0.02295486,0.00412292,0.00164978,-0.
 00111222,-0.01700701,0.01824551,0.00711127,0.07541178,-0.00046182,0.00
 027640,-0.00016605,0.00011541,-0.00014797,0.00010295,0.00049132,-0.000
 49296,0.00006842,-0.00273820,0.00384338,0.00053870,-0.00098684,-0.0023
 1711,-0.00070873,0.00023671,-0.00006844,-0.00002247,0.00280079,-0.0009
 5895,-0.00002017,-0.00016469,0.00009147,0.00000418,0.00001665,-0.00007
 822,-0.00002022,-0.00000107,0.00002361,0.00000259,-0.00000329,0.000010
 30,0.00000250,0.00000743,0.00002278,0.00001018,0.00005348,-0.00002528,
 0.00000368,-0.00001391,0.00000230,-0.00000163,-0.00000822,0.00000604,-
 0.00000017,-0.00001442,0.00000781,-0.00000359,0.00006231,-0.00003254,-
 0.00002618,-0.00000766,0.00001215,0.00001031,-0.00000723,0.00000863,0.
 00000061,-0.00001373,0.00000313,0.00000529,-0.00140401,-0.01454943,-0.
 01918634,0.00025167,-0.00073174,0.00037915,0.00007127,0.00050203,0.000
 36225,0.00006490,0.00024252,0.00007973,-0.00005041,-0.00006762,0.00007
 333,0.06642408,-0.16782687,-0.04556183,0.00822475,-0.02111109,0.002701
 73,0.00551186,0.00168950,-0.00144608,-0.07843620,0.20182703,-0.0004594
 4,0.00011657,0.00027913,0.00010158,0.00002171,-0.00012132,0.00071065,-
 0.00004676,-0.00025579,-0.00221723,0.00000213,0.00129051,0.00015378,0.
 00023558,-0.00094069,0.00022436,-0.00001057,-0.00015829,0.00206479,0.0
 0005530,-0.00051012,-0.00012735,0.00005681,0.00003926,0.00000302,-0.00
 003248,-0.00006204,-0.00000524,0.00000606,0.00001841,-0.00000085,0.000
 00235,0.00001054,0.00001455,0.00000984,0.00002422,0.00004119,-0.000003
 72,-0.00003406,-0.00001200,-0.00000371,0.00000646,-0.00000548,0.000000
 13,0.00000550,-0.00001582,-0.00000033,0.00000847,0.00002333,-0.0000085
 7,-0.00006562,0.00001505,0.00000691,0.00002274,-0.00000022,0.00000557,
 0.00000454,0.00000194,-0.00000330,0.00001415,0.00260185,-0.02775580,-0
 .01653545,0.00037374,0.00055544,-0.00023734,-0.00052207,0.00037772,-0.
 00105866,0.00009738,-0.00010638,-0.00040576,-0.00007870,-0.00015059,-0
 .00005798,0.02194944,-0.04416755,-0.05053306,-0.00519068,0.01304330,0.
 00411379,0.00531964,-0.00422994,0.00230833,-0.02416915,0.06325534,0.06
 506383,0.00492138,-0.00205321,0.00060084,-0.00112402,0.00062561,-0.000
 47204,-0.00689212,0.00235451,0.00046161,0.00005119,-0.00866059,-0.0022
 8543,-0.00022120,0.00412964,0.00111910,-0.00267217,0.00020457,0.000627
 19,-0.03674392,0.02812290,0.01878959,0.00186298,-0.00041511,0.00002641
 ,-0.00048663,0.00031285,0.00019467,0.00013823,-0.00010361,-0.00002160,
 0.00009224,-0.00003756,-0.00002611,0.00007087,-0.00008588,-0.00010039,
 -0.00058302,-0.00008550,-0.00006899,0.00012657,0.00007534,0.00001110,0
 .00010553,0.00000368,0.00000241,0.00016520,0.00000004,0.00004814,-0.00
 064371,-0.00006535,0.00036531,0.00004674,-0.00000610,-0.00013736,0.000
 08480,-0.00002328,-0.00000502,0.00007649,0.00009022,-0.00007199,-0.075
 09696,0.04493165,0.01254416,0.00687362,0.00889056,-0.00177932,-0.00031
 355,0.00003274,-0.00002297,-0.00098800,0.00085132,-0.00023134,-0.00091
 524,0.00004759,0.00003755,0.01059325,-0.00580687,-0.00394269,-0.000874
 04,0.00017961,0.00051128,-0.00052911,0.00094559,0.00081230,-0.00099372
 ,-0.00007504,-0.00094503,0.42781628,-0.00157646,0.00018750,0.00029927,
 0.00034462,0.00011563,-0.00008796,0.00239271,0.00047797,-0.00025735,-0
 .00484425,-0.00057167,0.00155024,0.00124980,0.00128839,-0.00027142,0.0
 0075652,0.00014867,-0.00026926,0.02550353,-0.00010461,-0.00852804,-0.0
 0054521,-0.00006095,-0.00004777,0.00019239,0.00003747,-0.00004475,-0.0
 0006264,-0.00000594,0.00001378,-0.00003062,-0.00000864,0.00000642,-0.0
 0004605,-0.00000124,0.00002379,0.00012402,0.00016806,0.00004980,-0.000
 00466,-0.00007232,-0.00001338,-0.00002301,-0.00002641,-0.00000087,-0.0
 0003765,-0.00004098,-0.00001212,0.00016828,0.00013962,-0.00007577,-0.0
 0001574,-0.00002980,0.00003063,-0.00002112,-0.00001464,-0.00000583,-0.
 00000130,-0.00006921,0.00000703,0.03522153,-0.17779233,-0.03476850,0.0
 1378614,-0.03612179,0.00591363,-0.00051256,-0.00080423,0.00210310,0.00
 032298,0.00003531,-0.00034649,-0.00032157,-0.00058001,-0.00038939,0.00
 270369,-0.01790518,-0.02124452,-0.00009117,-0.00090503,0.00015423,0.00
 035369,-0.00040425,0.00025561,-0.00090729,0.00008607,-0.00083134,-0.01
 746143,0.44433413,-0.00197565,0.00110007,-0.00125011,0.00040267,-0.000
 41473,0.00075611,0.00285867,-0.00054726,0.00017456,-0.00128664,0.00237
 756,0.00038032,0.00047776,-0.00103486,0.00030089,0.00085599,-0.0001505
 0,0.00011139,0.01780646,-0.00935231,-0.00052403,-0.00064945,0.00009157
 ,-0.00015535,0.00020591,-0.00008919,0.00005033,-0.00005149,0.00003449,
 -0.00002977,-0.00003578,0.00001098,-0.00001466,-0.00004806,0.00002580,
 0.00000032,0.00016300,0.00006271,0.00018209,-0.00002073,-0.00003226,-0
 .00004645,-0.00002975,-0.00000261,-0.00002416,-0.00002933,-0.00000879,
 -0.00006974,0.00026603,0.00001869,-0.00000062,-0.00005277,0.00000091,0
 .00001320,-0.00003642,0.00000401,-0.00001542,-0.00004872,-0.00002410,-
 0.00000699,0.01037408,-0.03735218,-0.07682501,-0.00618050,0.01904970,0
 .00722285,0.00023920,0.00096071,-0.00199588,-0.00012039,-0.00083135,-0
 .00049528,0.00034279,-0.00062937,-0.00021641,0.00341285,-0.03064297,-0
 .01474877,0.00006918,0.00022120,0.00008360,0.00046000,0.00043187,-0.00
 052502,-0.00146245,-0.00007789,-0.00219469,-0.00902270,0.01223082,0.41
 519558,-0.00033027,0.00002097,0.00027943,0.00010883,-0.00006586,-0.000
 07302,0.00005714,-0.00013550,-0.00020805,-0.00010697,0.00091155,0.0005
 4938,-0.00014236,-0.00073405,-0.00017910,0.00019034,-0.00000063,-0.000
 13879,-0.00090154,-0.00017984,-0.00038722,-0.00015761,0.00006623,0.000
 05306,0.00003796,-0.00004833,-0.00003849,-0.00001131,0.00001428,0.0000
 0726,-0.00000962,0.00000695,0.00000658,-0.00000277,0.00001089,0.000014
 27,0.00008224,-0.00002525,-0.00003488,-0.00002719,0.00000348,0.0000114
 7,-0.00001531,0.00000395,0.00000449,-0.00002744,0.00001028,0.00000811,
 0.00005245,-0.00001106,-0.00005694,-0.00000182,0.00000517,0.00001794,-
 0.00000962,0.00000459,0.00000637,-0.00000971,-0.00000240,0.00001438,0.
 00906562,0.00147167,0.00412216,-0.00100117,0.00008209,-0.00010891,0.00
 014237,0.00001673,0.00001193,0.00015918,-0.00019449,0.00005489,0.00034
 930,0.00030404,-0.00002548,-0.00079892,0.00151436,0.00081482,0.0000629
 5,-0.00000053,-0.00014499,-0.00003096,-0.00011159,-0.00014400,0.000223
 92,-0.00000247,0.00017187,-0.08253865,-0.03318871,-0.07376411,0.091358
 07,0.00063538,-0.00011966,-0.00005465,-0.00014930,-0.00000798,0.000008
 66,-0.00090308,0.00004903,0.00007677,0.00099449,-0.00068867,-0.0006129
 1,-0.00017115,0.00013338,0.00017690,-0.00033045,-0.00003321,0.00009789
 ,-0.00092832,0.00042254,0.00042649,0.00022831,-0.00000039,0.00002239,-
 0.00007041,0.00000247,0.00001860,0.00002212,-0.00000270,-0.00000467,0.
 00001128,0.00000107,-0.00000238,0.00001426,-0.00000384,-0.00001049,-0.
 00005392,-0.00005581,-0.00002201,0.00000388,0.00002588,0.00000651,0.00
 000945,0.00000830,0.00000104,0.00001598,0.00001340,0.00000618,-0.00007
 311,-0.00004133,0.00003147,0.00000612,0.00000753,-0.00001304,0.0000086
 5,0.00000307,0.00000263,0.00000331,0.00002309,-0.00000307,-0.00585442,
 -0.02041901,-0.02698632,-0.00029605,-0.00001092,0.00057369,0.00007567,
 -0.00009128,-0.00017711,-0.00012202,-0.00037449,-0.00004915,0.00042884
 ,-0.00092858,0.00037689,0.00096452,-0.00230502,-0.00076760,0.00005618,
 0.00002590,0.00005289,0.00005540,0.00002286,-0.00000168,-0.00019361,-0
 .00010765,-0.00044355,-0.03188958,-0.05706441,-0.04926191,0.03766599,0
 .07449510,0.00086517,-0.00037237,0.00029221,-0.00019942,0.00013614,-0.
 00023512,-0.00110660,0.00016648,0.00000393,0.00133891,-0.00098052,-0.0
 0040889,-0.00023655,0.00060324,0.00010563,-0.00037840,0.00003954,0.000
 02307,-0.00027449,0.00029649,-0.00055634,0.00028526,-0.00004043,0.0000
 4463,-0.00008723,0.00003602,-0.00000268,0.00002422,-0.00001307,0.00000
 633,0.00001522,-0.00000410,0.00000277,0.00001786,-0.00001070,-0.000006
 59,-0.00007726,-0.00002668,-0.00006139,0.00001243,0.00001399,0.0000161
 2,0.00001363,0.00000179,0.00000804,0.00001681,0.00000444,0.00002512,-0
 .00010721,-0.00001041,0.00001901,0.00001643,-0.00000030,-0.00001154,0.
 00001453,-0.00000189,0.00000422,0.00001778,0.00001135,-0.00000170,-0.0
 0172565,-0.01809660,-0.01068849,-0.00006385,0.00022516,-0.00082346,0.0
 0000276,0.00006918,-0.00000879,-0.00004955,0.00016416,0.00022281,-0.00
 007817,0.00040946,0.00037384,0.00037439,-0.00019815,-0.00007921,-0.000
 04476,-0.00010327,-0.00006327,-0.00005997,-0.00005457,0.00002002,-0.00
 006105,-0.00013500,-0.00009548,-0.07405619,-0.05172023,-0.14822183,0.0
 8933824,0.06937135,0.17768480,-0.00055042,0.00012900,0.00010293,0.0001
 4401,-0.00005744,0.00001293,0.00056044,0.00001255,-0.00011264,-0.00116
 257,0.00029164,0.00054308,0.00019018,-0.00021820,-0.00015105,0.0002760
 5,0.00000227,-0.00010748,0.00036789,0.00064985,-0.00011039,-0.00022004
 ,0.00004420,0.00001549,0.00006607,-0.00003645,-0.00002720,-0.00001955,
 0.00001136,0.00000444,-0.00001328,0.00000489,0.00000423,-0.00001152,0.
 00000978,0.00001275,0.00007972,0.00000616,-0.00000007,-0.00001901,-0.0
 0000728,0.00000115,-0.00001519,-0.00000005,0.00000090,-0.00002335,0.00
 000094,-0.00000224,0.00007771,0.00000596,-0.00004550,-0.00000849,0.000
 00140,0.00001667,-0.00001238,0.00000238,0.00000274,-0.00001219,-0.0000
 0933,0.00000942,-0.01920774,0.01373093,0.00999388,-0.00026010,-0.00070
 219,-0.00010602,0.00000863,0.00007874,0.00010219,0.00033211,0.00028366
 ,-0.00010401,-0.00007081,0.00021338,-0.00013215,-0.00066891,-0.0004577
 3,-0.00037288,0.00014202,-0.00001868,0.00012667,0.00043518,-0.00006613
 ,-0.00008042,0.00000997,0.00007156,-0.00004935,-0.20572206,-0.01374237
 ,0.04630882,-0.01899349,-0.00558506,-0.00289938,0.24993897,-0.00020252
 ,0.00022192,-0.00020526,0.00003266,-0.00006641,0.00007614,0.00046262,-
 0.00032878,0.00004761,0.00088360,0.00096096,-0.00013067,-0.00015504,-0
 .00033822,0.00001158,0.00013233,-0.00004885,0.00001405,0.00061001,-0.0
 0298990,-0.00078910,-0.00007433,0.00003871,-0.00001360,0.00001012,-0.0
 0002823,-0.00000377,-0.00000126,0.00000907,-0.00000203,-0.00000201,0.0
 0000373,-0.00000002,0.00000119,0.00000701,0.00000337,0.00001887,-0.000
 01016,0.00000820,-0.00000456,0.00000183,-0.00000178,-0.00000312,0.0000
 0283,-0.00000123,-0.00000418,0.00000387,-0.00000525,0.00002802,-0.0000
 1101,-0.00001330,-0.00000080,0.00000361,0.00000541,-0.00000250,0.00000
 390,-0.00000070,-0.00000372,0.00000098,0.00000287,0.02625715,-0.004255
 18,-0.00956421,-0.00113716,-0.00034997,0.00045833,0.00016797,-0.000051
 13,-0.00010012,0.00037182,-0.00089831,0.00027282,0.00030251,-0.0000713
 8,0.00002486,-0.00090984,-0.00046329,0.00030826,0.00014497,0.00009799,
 -0.00011509,0.00003192,-0.00040623,-0.00066634,0.00014953,-0.00003548,
 -0.00002838,-0.01501918,-0.03412405,0.00404974,-0.00844255,0.00200180,
 -0.00049090,0.01066814,0.04274959,0.00015547,-0.00008096,0.00010230,-0
 .00004212,0.00005006,-0.00009397,-0.00012653,-0.00005005,-0.00004653,0
 .00063162,0.00004850,0.00020540,-0.00012755,0.00002325,-0.00010829,-0.
 00004612,0.00001003,-0.00002238,-0.00012241,-0.00073000,-0.00071139,0.
 00005171,-0.00000262,0.00001951,-0.00002272,0.00000683,-0.00001463,0.0
 0000552,-0.00000288,0.00000569,0.00000418,-0.00000114,0.00000336,0.000
 00692,-0.00000174,0.00000325,-0.00001555,-0.00000408,-0.00002658,0.000
 00221,0.00000180,0.00000661,0.00000318,-0.00000020,0.00000410,0.000002
 09,0.00000016,0.00000964,-0.00002572,0.00000115,-0.00001195,0.00000873
 ,-0.00000057,0.00000254,0.00000458,-0.00000004,0.00000224,0.00000737,0
 .00000011,0.00000334,0.01278211,-0.00602933,0.00033309,0.00019079,-0.0
 0001699,-0.00094678,-0.00001924,0.00002940,0.00002747,-0.00015732,0.00
 037795,0.00024126,-0.00017670,0.00024957,0.00013938,-0.00085218,0.0005
 3237,-0.00042470,0.00022632,-0.00026919,-0.00023949,0.00001210,-0.0007
 1885,-0.00035208,0.00010369,-0.00010781,0.00002078,0.04598777,0.003700
 43,-0.04517802,-0.01648551,-0.00344323,0.00391091,-0.05979696,-0.00070
 761,0.04892895,-0.00065680,0.00021793,-0.00001252,0.00017695,-0.000136
 21,0.00010830,0.00054347,-0.00020358,-0.00008325,-0.00069904,0.0012338
 8,0.00038105,-0.00002800,-0.00091425,-0.00018707,0.00031563,-0.0000358
 7,-0.00009477,-0.00064691,-0.00031565,0.00024563,-0.00025397,0.0000743
 3,0.00002050,0.00006932,-0.00005826,-0.00002820,-0.00001936,0.00001779
 ,0.00000244,-0.00001449,0.00000785,0.00000393,-0.00001005,0.00001448,0
 .00001428,0.00009801,-0.00001136,0.00000558,-0.00002650,-0.00000140,-0
 .00000038,-0.00001795,0.00000312,-0.00000044,-0.00002696,0.00000615,-0
 .00000704,0.00009366,-0.00001080,-0.00005201,-0.00001075,0.00000621,0.
 00001972,-0.00001484,0.00000524,0.00000361,-0.00001899,-0.00000402,0.0
 0001205,0.00473298,0.01060303,-0.00542369,-0.00084368,0.00121602,0.000
 32361,0.00011387,0.00012610,-0.00018937,0.00006734,-0.00010861,0.00006
 794,0.00012135,0.00002020,0.00005086,-0.00093213,0.00000203,0.00010664
 ,0.00040748,-0.00004883,-0.00006669,0.00013205,-0.00028106,-0.00013665
 ,0.00010421,-0.00001495,-0.00006953,-0.03568762,-0.00968607,0.01057143
 ,0.00322653,0.00542078,-0.01084769,-0.00563745,-0.01431084,0.01783017,
 0.03534261,0.00085663,-0.00022288,0.00001596,-0.00018216,0.00003353,-0
 .00004161,-0.00121344,0.00007246,0.00010644,0.00142548,-0.00092704,-0.
 00063820,-0.00028352,0.00029368,0.00010443,-0.00042082,-0.00002806,0.0
 0010956,-0.00096611,0.00039655,0.00068100,0.00028968,-0.00000862,0.000
 01976,-0.00008922,0.00000964,0.00002374,0.00002705,-0.00000655,-0.0000
 0395,0.00001448,0.00000018,-0.00000304,0.00001879,-0.00000548,-0.00001
 276,-0.00007292,-0.00005930,-0.00001937,0.00000810,0.00002839,0.000004
 00,0.00001287,0.00000851,0.00000012,0.00002144,0.00001231,0.00000707,-
 0.00009219,-0.00005203,0.00004669,0.00000729,0.00001037,-0.00001775,0.
 00001093,0.00000350,0.00000219,0.00000305,0.00002977,-0.00000664,0.007
 17481,-0.03497405,0.01441765,0.00090115,-0.00199109,-0.00076055,0.0000
 3842,-0.00032439,0.00035550,0.00002435,-0.00001460,-0.00000638,0.00003
 087,-0.00000714,-0.00003713,-0.00043739,0.00008423,0.00008797,0.000041
 68,-0.00035735,-0.00082955,-0.00016183,-0.00027601,-0.00010943,0.00014
 420,-0.00010362,0.00007184,-0.01001064,-0.12031102,0.08978205,0.001030
 17,0.00501948,0.00071042,-0.00531776,-0.00163119,0.00713559,0.00716671
 ,0.15529801,-0.00012445,-0.00003517,0.00023965,0.00002065,0.00005652,-
 0.00013920,0.00024634,-0.00000296,-0.00015871,-0.00040010,-0.00007708,
 0.00050050,0.00013643,0.00000826,-0.00017892,0.00009013,0.00003056,-0.
 00010017,-0.00014763,0.00035493,-0.00076499,-0.00004064,0.00000519,0.0
 0003004,0.00000476,0.00000205,-0.00003277,-0.00000392,-0.00000038,0.00
 000948,-0.00000071,-0.00000083,0.00000624,0.00000208,-0.00000036,0.000
 01051,0.00001498,0.00000645,-0.00003609,-0.00000475,-0.00000416,0.0000
 1033,-0.00000234,-0.00000188,0.00000586,-0.00000863,-0.00000096,0.0000
 1116,-0.00000267,0.00001792,-0.00004133,0.00001118,-0.00000440,0.00001
 205,0.00000177,-0.00000055,0.00000348,0.00000955,-0.00000942,0.0000097
 8,-0.00189963,0.00244677,0.00815725,0.00057266,-0.00158758,-0.00033219
 ,-0.00002914,-0.00002865,0.00023927,0.00005668,0.00012634,-0.00003922,
 -0.00003838,0.00014334,-0.00008934,-0.00011676,0.00019916,-0.00100391,
 0.00003374,-0.00080108,-0.00026055,0.00000893,-0.00026594,0.00014598,-
 0.00001365,-0.00011662,0.00003567,0.01104960,0.09257678,-0.13193360,-0
 .00369695,0.01060336,-0.02149847,0.00683937,0.00755596,-0.00579302,-0.
 01256850,-0.11119577,0.15297561||-0.00000031,0.00000114,-0.00000688,-0
 .00000153,-0.00000168,0.00000448,-0.00000302,-0.00000724,0.00000371,-0
 .00000265,0.00001475,0.00000214,0.00000105,-0.00000532,-0.00000106,-0.
 00000271,0.00000440,0.00000331,0.00000623,-0.00000419,-0.00000160,0.00
 000404,-0.00000381,-0.00000695,0.00000165,-0.00000225,0.00000095,0.000
 00077,0.00000146,0.00000002,-0.00000154,0.00000126,0.00000065,0.000000
 25,0.00000176,0.00000015,0.00000135,0.00000536,0.00000486,-0.00000083,
 -0.00000262,-0.00000129,-0.00000119,-0.00000179,0.00000022,0.00000055,
 -0.00000095,-0.00000005,-0.00000488,-0.00000144,0.00000261,0.00000005,
 0.00000015,-0.00000168,0.00000422,0.00000049,-0.00000189,0.00000086,0.
 00000055,-0.00000116,-0.00000506,0.00000800,0.00000341,-0.00000028,-0.
 00000172,0.00000603,0.00000033,-0.00000050,-0.00000113,0.00000149,0.00
 000018,-0.00000182,-0.00000044,0.00000018,-0.00000232,-0.00000261,0.00
 000077,-0.00000718,0.00000028,-0.00000087,0.00000295,0.00000104,-0.000
 00103,0.00000036,-0.00000033,-0.00000128,0.00000081,0.00000792,-0.0000
 0529,-0.00000339,-0.00000041,0.00000066,0.00000042,-0.00000382,0.00000
 023,0.00000105,-0.00000047,0.00000063,0.00000026|||@


 A true friend is someone who is there for
 you when he'd rather be anywhere else.
                               -- Len Wein
 Job cpu time:       0 days  0 hours  0 minutes  7.0 seconds.
 File lengths (MBytes):  RWF=     78 Int=      0 D2E=      0 Chk=      3 Scr=      1
 Normal termination of Gaussian 09 at Thu Mar 17 15:31:20 2022.
