 Entering Link 1 = C:\G09W\l1.exe PID=     11108.
  
 Copyright (c) 1988,1990,1992,1993,1995,1998,2003,2009,2013,
            Gaussian, Inc.  All Rights Reserved.
  
 This is part of the Gaussian(R) 09 program.  It is based on
 the Gaussian(R) 03 system (copyright 2003, Gaussian, Inc.),
 the Gaussian(R) 98 system (copyright 1998, Gaussian, Inc.),
 the Gaussian(R) 94 system (copyright 1995, Gaussian, Inc.),
 the Gaussian 92(TM) system (copyright 1992, Gaussian, Inc.),
 the Gaussian 90(TM) system (copyright 1990, Gaussian, Inc.),
 the Gaussian 88(TM) system (copyright 1988, Gaussian, Inc.),
 the Gaussian 86(TM) system (copyright 1986, Carnegie Mellon
 University), and the Gaussian 82(TM) system (copyright 1983,
 Carnegie Mellon University). Gaussian is a federally registered
 trademark of Gaussian, Inc.
  
 This software contains proprietary and confidential information,
 including trade secrets, belonging to Gaussian, Inc.
  
 This software is provided under written license and may be
 used, copied, transmitted, or stored only in accord with that
 written license.
  
 The following legend is applicable only to US Government
 contracts under FAR:
  
                    RESTRICTED RIGHTS LEGEND
  
 Use, reproduction and disclosure by the US Government is
 subject to restrictions as set forth in subparagraphs (a)
 and (c) of the Commercial Computer Software - Restricted
 Rights clause in FAR 52.227-19.
  
 Gaussian, Inc.
 340 Quinnipiac St., Bldg. 40, Wallingford CT 06492
  
  
 ---------------------------------------------------------------
 Warning -- This program may not be used in any manner that
 competes with the business of Gaussian, Inc. or will provide
 assistance to any competitor of Gaussian, Inc.  The licensee
 of this program is prohibited from giving any competitor of
 Gaussian, Inc. access to this program.  By using this program,
 the user acknowledges that Gaussian, Inc. is engaged in the
 business of creating and licensing software in the field of
 computational chemistry and represents and warrants to the
 licensee that it is not a competitor of Gaussian, Inc. and that
 it will not use this program in any manner prohibited above.
 ---------------------------------------------------------------
  

 Cite this work as:
 Gaussian 09, Revision D.01,
 M. J. Frisch, G. W. Trucks, H. B. Schlegel, G. E. Scuseria, 
 M. A. Robb, J. R. Cheeseman, G. Scalmani, V. Barone, B. Mennucci, 
 G. A. Petersson, H. Nakatsuji, M. Caricato, X. Li, H. P. Hratchian, 
 A. F. Izmaylov, J. Bloino, G. Zheng, J. L. Sonnenberg, M. Hada, 
 M. Ehara, K. Toyota, R. Fukuda, J. Hasegawa, M. Ishida, T. Nakajima, 
 Y. Honda, O. Kitao, H. Nakai, T. Vreven, J. A. Montgomery, Jr., 
 J. E. Peralta, F. Ogliaro, M. Bearpark, J. J. Heyd, E. Brothers, 
 K. N. Kudin, V. N. Staroverov, T. Keith, R. Kobayashi, J. Normand, 
 K. Raghavachari, A. Rendell, J. C. Burant, S. S. Iyengar, J. Tomasi, 
 M. Cossi, N. Rega, J. M. Millam, M. Klene, J. E. Knox, J. B. Cross, 
 V. Bakken, C. Adamo, J. Jaramillo, R. Gomperts, R. E. Stratmann, 
 O. Yazyev, A. J. Austin, R. Cammi, C. Pomelli, J. W. Ochterski, 
 R. L. Martin, K. Morokuma, V. G. Zakrzewski, G. A. Voth, 
 P. Salvador, J. J. Dannenberg, S. Dapprich, A. D. Daniels, 
 O. Farkas, J. B. Foresman, J. V. Ortiz, J. Cioslowski, 
 and D. J. Fox, Gaussian, Inc., Wallingford CT, 2013.
 
 ******************************************
 Gaussian 09:  IA32W-G09RevD.01 24-Apr-2013
                13-Mar-2022 
 ******************************************
 %nprocshared=4
 Will use up to    4 processors via shared memory.
 %mem=1GB
 --------------
 # opt freq pm6
 --------------
 1/14=-1,18=20,19=15,26=1,38=1/1,3;
 2/9=110,12=2,17=6,18=5,40=1/2;
 3/5=2,16=1,25=1,41=3900000,71=1/1,2,3;
 4/35=1/1;
 5/5=2,35=1,38=5/2;
 6/7=2,8=2,9=2,10=2,28=1/1;
 7//1,2,3,16;
 1/14=-1,18=20,19=15,26=1/3(2);
 2/9=110/2;
 99//99;
 2/9=110/2;
 3/5=2,16=1,25=1,41=3900000,71=1,135=20/1,2,3;
 4/5=5,16=3,35=1/1;
 5/5=2,35=1,38=5/2;
 7//1,2,3,16;
 1/14=-1,18=20,19=15,26=1/3(-5);
 2/9=110/2;
 6/7=2,8=2,9=2,10=2,19=2,28=1/1;
 99/9=1/99;
 ----------------------
 Energy Calculation(GC)
 ----------------------
 Symbolic Z-matrix:
 Charge =  0 Multiplicity = 1
 C                    -1.04558   1.24607  -0.24087 
 H                    -0.68892   0.23726  -0.24087 
 H                    -2.11558   1.24609  -0.24087 
 N                    -0.55223   1.94375  -1.44928 
 H                     0.44776   1.94532  -1.44837 
 H                    -0.88705   2.88603  -1.4502 
 C                    -0.53223   1.97203   1.01654 
 O                    -0.83363   1.5458    2.16155 
 O                     0.28975   3.13447   0.88251 
 H                     0.52292   3.46422   1.75343 
 

 GradGradGradGradGradGradGradGradGradGradGradGradGradGradGradGradGradGrad
 Berny optimization.
 Initialization pass.
                           ----------------------------
                           !    Initial Parameters    !
                           ! (Angstroms and Degrees)  !
 --------------------------                            --------------------------
 ! Name  Definition              Value          Derivative Info.                !
 --------------------------------------------------------------------------------
 ! R1    R(1,2)                  1.07           estimate D2E/DX2                !
 ! R2    R(1,3)                  1.07           estimate D2E/DX2                !
 ! R3    R(1,4)                  1.48           estimate D2E/DX2                !
 ! R4    R(1,7)                  1.54           estimate D2E/DX2                !
 ! R5    R(4,5)                  1.0            estimate D2E/DX2                !
 ! R6    R(4,6)                  1.0            estimate D2E/DX2                !
 ! R7    R(7,8)                  1.2584         estimate D2E/DX2                !
 ! R8    R(7,9)                  1.43           estimate D2E/DX2                !
 ! R9    R(9,10)                 0.96           estimate D2E/DX2                !
 ! A1    A(2,1,3)              109.4712         estimate D2E/DX2                !
 ! A2    A(2,1,4)              109.4712         estimate D2E/DX2                !
 ! A3    A(2,1,7)              109.4712         estimate D2E/DX2                !
 ! A4    A(3,1,4)              109.4712         estimate D2E/DX2                !
 ! A5    A(3,1,7)              109.4712         estimate D2E/DX2                !
 ! A6    A(4,1,7)              109.4713         estimate D2E/DX2                !
 ! A7    A(1,4,5)              109.4712         estimate D2E/DX2                !
 ! A8    A(1,4,6)              109.4713         estimate D2E/DX2                !
 ! A9    A(5,4,6)              109.4712         estimate D2E/DX2                !
 ! A10   A(1,7,8)              120.2269         estimate D2E/DX2                !
 ! A11   A(1,7,9)              119.8865         estimate D2E/DX2                !
 ! A12   A(8,7,9)              119.8865         estimate D2E/DX2                !
 ! A13   A(7,9,10)             109.5            estimate D2E/DX2                !
 ! D1    D(2,1,4,5)            -60.1111         estimate D2E/DX2                !
 ! D2    D(2,1,4,6)            179.8889         estimate D2E/DX2                !
 ! D3    D(3,1,4,5)            179.8889         estimate D2E/DX2                !
 ! D4    D(3,1,4,6)             59.8889         estimate D2E/DX2                !
 ! D5    D(7,1,4,5)             59.8889         estimate D2E/DX2                !
 ! D6    D(7,1,4,6)            -60.1111         estimate D2E/DX2                !
 ! D7    D(2,1,7,8)            -59.9998         estimate D2E/DX2                !
 ! D8    D(2,1,7,9)            120.0002         estimate D2E/DX2                !
 ! D9    D(3,1,7,8)             60.0002         estimate D2E/DX2                !
 ! D10   D(3,1,7,9)           -119.9998         estimate D2E/DX2                !
 ! D11   D(4,1,7,8)           -179.9998         estimate D2E/DX2                !
 ! D12   D(4,1,7,9)              0.0002         estimate D2E/DX2                !
 ! D13   D(1,7,9,10)           179.9999         estimate D2E/DX2                !
 ! D14   D(8,7,9,10)            -0.0001         estimate D2E/DX2                !
 --------------------------------------------------------------------------------
 Trust Radius=3.00D-01 FncErr=1.00D-07 GrdErr=1.00D-07
 Number of steps in this run=     46 maximum allowed number of steps=    100.
 GradGradGradGradGradGradGradGradGradGradGradGradGradGradGradGradGradGrad

                          Input orientation:                          
 ---------------------------------------------------------------------
 Center     Atomic      Atomic             Coordinates (Angstroms)
 Number     Number       Type             X           Y           Z
 ---------------------------------------------------------------------
      1          6           0       -1.045576    1.246074   -0.240867
      2          1           0       -0.688922    0.237264   -0.240867
      3          1           0       -2.115576    1.246087   -0.240867
      4          7           0       -0.552235    1.943746   -1.449282
      5          1           0        0.447764    1.945317   -1.448368
      6          1           0       -0.887048    2.886030   -1.450197
      7          6           0       -0.532234    1.972030    1.016538
      8          8           0       -0.833627    1.545802    2.161555
      9          8           0        0.289754    3.134473    0.882514
     10          1           0        0.522925    3.464219    1.753432
 ---------------------------------------------------------------------
                    Distance matrix (angstroms):
                    1          2          3          4          5
     1  C    0.000000
     2  H    1.070000   0.000000
     3  H    1.070000   1.747303   0.000000
     4  N    1.480000   2.095479   2.095479   0.000000
     5  H    2.043787   2.380664   2.918509   1.000000   0.000000
     6  H    2.043788   2.918509   2.379323   1.000000   1.632993
     7  C    1.540000   2.148263   2.148263   2.466063   2.652710
     8  O    2.430306   2.739496   2.739498   3.643581   3.851378
     9  O    2.571214   3.257854   3.257852   2.750281   2.621463
    10  H    3.370103   3.982341   3.982339   3.704751   3.544607
                    6          7          8          9         10
     6  H    0.000000
     7  C    2.654444   0.000000
     8  O    3.852767   1.258400   0.000000
     9  O    2.624524   1.430000   2.328477   0.000000
    10  H    3.547614   1.970533   2.384769   0.960000   0.000000
 Stoichiometry    C2H5NO2
 Framework group  C1[X(C2H5NO2)]
 Deg. of freedom    24
 Full point group                 C1      NOp   1
 Largest Abelian subgroup         C1      NOp   1
 Largest concise Abelian subgroup C1      NOp   1
                         Standard orientation:                         
 ---------------------------------------------------------------------
 Center     Atomic      Atomic             Coordinates (Angstroms)
 Number     Number       Type             X           Y           Z
 ---------------------------------------------------------------------
      1          6           0       -0.784705   -0.834107   -0.000124
      2          1           0       -0.863542   -1.446796   -0.873792
      3          1           0       -0.863683   -1.446826    0.873511
      4          7           0       -1.874077    0.167725   -0.000195
      5          1           0       -1.799194    0.741525   -0.815760
      6          1           0       -1.801471    0.739166    0.817230
      7          6           0        0.575969   -0.112881   -0.000001
      8          8           0        1.644928   -0.776883    0.000070
      9          8           0        0.624895    1.316282    0.000031
     10          1           0        1.540265    1.605588    0.000111
 ---------------------------------------------------------------------
 Rotational constants (GHZ):      8.8682150      4.0995273      2.8961451
 Standard basis: VSTO-6G (5D, 7F)
 There are    25 symmetry adapted cartesian basis functions of A   symmetry.
 There are    25 symmetry adapted basis functions of A   symmetry.
    25 basis functions,   150 primitive gaussians,    25 cartesian basis functions
    15 alpha electrons       15 beta electrons
       nuclear repulsion energy       124.7255504455 Hartrees.
 Integral buffers will be    262144 words long.
 Regular integral format.
 Two-electron integral symmetry is turned off.
 Do NDO integrals.
 One-electron integrals computed using PRISM.
 NBasis=    25 RedAO= F EigKep=  0.00D+00  NBF=    25
 NBsUse=    25 1.00D-04 EigRej=  0.00D+00 NBFU=    25
 Simple Huckel Guess.
 Overlap will be assumed to be unity.
 Keep J ints in memory in canonical form, NReq=884130.
 Requested convergence on RMS density matrix=1.00D-08 within 128 cycles.
 Requested convergence on MAX density matrix=1.00D-06.
 Requested convergence on             energy=1.00D-06.
 No special actions if energy rises.
 SCF Done:  E(RPM6) = -0.131552927529     A.U. after   14 cycles
            NFock= 13  Conv=0.37D-08     -V/T= 0.9920

 **********************************************************************

            Population analysis using the SCF density.

 **********************************************************************

 Orbital symmetries:
       Occupied  (A) (A) (A) (A) (A) (A) (A) (A) (A) (A) (A) (A)
                 (A) (A) (A)
       Virtual   (A) (A) (A) (A) (A) (A) (A) (A) (A) (A)
 The electronic state is 1-A.
 Alpha  occ. eigenvalues --   -1.18987  -1.15995  -1.12453  -0.94184  -0.81319
 Alpha  occ. eigenvalues --   -0.67722  -0.67052  -0.62910  -0.57607  -0.56925
 Alpha  occ. eigenvalues --   -0.53045  -0.50802  -0.45824  -0.43409  -0.37242
 Alpha virt. eigenvalues --   -0.00590   0.02457   0.08777   0.09438   0.13226
 Alpha virt. eigenvalues --    0.16793   0.17134   0.18569   0.20244   0.23910
          Condensed to atoms (all electrons):
               1          2          3          4          5          6
     1  C    4.200943   0.000000   0.000000   0.000000   0.000000   0.000000
     2  H    0.000000   0.813792   0.000000   0.000000   0.000000   0.000000
     3  H    0.000000   0.000000   0.813851   0.000000   0.000000   0.000000
     4  N    0.000000   0.000000   0.000000   5.474003   0.000000   0.000000
     5  H    0.000000   0.000000   0.000000   0.000000   0.779730   0.000000
     6  H    0.000000   0.000000   0.000000   0.000000   0.000000   0.779794
     7  C    0.000000   0.000000   0.000000   0.000000   0.000000   0.000000
     8  O    0.000000   0.000000   0.000000   0.000000   0.000000   0.000000
     9  O    0.000000   0.000000   0.000000   0.000000   0.000000   0.000000
    10  H    0.000000   0.000000   0.000000   0.000000   0.000000   0.000000
               7          8          9         10
     1  C    0.000000   0.000000   0.000000   0.000000
     2  H    0.000000   0.000000   0.000000   0.000000
     3  H    0.000000   0.000000   0.000000   0.000000
     4  N    0.000000   0.000000   0.000000   0.000000
     5  H    0.000000   0.000000   0.000000   0.000000
     6  H    0.000000   0.000000   0.000000   0.000000
     7  C    3.448151   0.000000   0.000000   0.000000
     8  O    0.000000   6.503709   0.000000   0.000000
     9  O    0.000000   0.000000   6.522810   0.000000
    10  H    0.000000   0.000000   0.000000   0.663218
 Mulliken charges:
               1
     1  C   -0.200943
     2  H    0.186208
     3  H    0.186149
     4  N   -0.474003
     5  H    0.220270
     6  H    0.220206
     7  C    0.551849
     8  O   -0.503709
     9  O   -0.522810
    10  H    0.336782
 Sum of Mulliken charges =   0.00000
 Mulliken charges with hydrogens summed into heavy atoms:
               1
     1  C    0.171414
     4  N   -0.033527
     7  C    0.551849
     8  O   -0.503709
     9  O   -0.186027
 Charge=              0.0000 electrons
 Dipole moment (field-independent basis, Debye):
    X=             -0.3930    Y=              1.2733    Z=              0.0036  Tot=              1.3326
 N-N= 1.247255504455D+02 E-N=-2.118703145078D+02  KE=-1.653437786885D+01
 Calling FoFJK, ICntrl=      2127 FMM=F ISym2X=0 I1Cent= 0 IOpClX= 0 NMat=1 NMatS=1 NMatT=0.
 ***** Axes restored to original set *****
 -------------------------------------------------------------------
 Center     Atomic                   Forces (Hartrees/Bohr)
 Number     Number              X              Y              Z
 -------------------------------------------------------------------
      1        6           0.032906838    0.046562361    0.002401670
      2        1           0.005595489   -0.023225177    0.002661208
      3        1          -0.023760272   -0.002483531    0.002668875
      4        7          -0.008546794   -0.012108728   -0.006361106
      5        1           0.009867346    0.003105417   -0.003585409
      6        1          -0.000374749    0.010328823   -0.003585281
      7        6          -0.012695247   -0.017945845    0.069107273
      8        8           0.025661327    0.036289661   -0.065043169
      9        8          -0.033292957   -0.047081255   -0.012687464
     10        1           0.004639019    0.006558274    0.014423404
 -------------------------------------------------------------------
 Cartesian Forces:  Max     0.069107273 RMS     0.025907333

 GradGradGradGradGradGradGradGradGradGradGradGradGradGradGradGradGradGrad
 Berny optimization.
 FormGI is forming the generalized inverse of G from B-inverse, IUseBI=4.
 Internal  Forces:  Max     0.077620243 RMS     0.018281527
 Search for a local minimum.
 Step number   1 out of a maximum of   46
 All quantities printed in internal units (Hartrees-Bohrs-Radians)
 Mixed Optimization -- RFO/linear search
 Second derivative matrix not updated -- first step.
 ITU=  0
     Eigenvalues ---    0.00237   0.00500   0.00634   0.01295   0.04146
     Eigenvalues ---    0.05224   0.06479   0.09333   0.12888   0.16000
     Eigenvalues ---    0.16000   0.16000   0.22021   0.25000   0.25000
     Eigenvalues ---    0.28519   0.34570   0.37230   0.37230   0.40989
     Eigenvalues ---    0.47688   0.47688   0.55473   0.80209
 RFO step:  Lambda=-2.46043488D-02 EMin= 2.36824124D-03
 Linear search not attempted -- first point.
 Iteration  1 RMS(Cart)=  0.06636522 RMS(Int)=  0.00193122
 Iteration  2 RMS(Cart)=  0.00192487 RMS(Int)=  0.00055302
 Iteration  3 RMS(Cart)=  0.00000290 RMS(Int)=  0.00055302
 Iteration  4 RMS(Cart)=  0.00000000 RMS(Int)=  0.00055302
 Variable       Old X    -DE/DX   Delta X   Delta X   Delta X     New X
                                 (Linear)    (Quad)   (Total)
    R1        2.02201   0.02376   0.00000   0.05987   0.05987   2.08188
    R2        2.02201   0.02376   0.00000   0.05986   0.05986   2.08187
    R3        2.79679   0.01199   0.00000   0.03238   0.03238   2.82917
    R4        2.91018  -0.01095   0.00000  -0.03534  -0.03534   2.87484
    R5        1.88973   0.00987   0.00000   0.01968   0.01968   1.90941
    R6        1.88973   0.00986   0.00000   0.01966   0.01966   1.90939
    R7        2.37803  -0.07762   0.00000  -0.09389  -0.09389   2.28414
    R8        2.70231  -0.04957   0.00000  -0.11410  -0.11410   2.58821
    R9        1.81414   0.01646   0.00000   0.02842   0.02842   1.84256
    A1        1.91063   0.00046   0.00000  -0.02794  -0.02903   1.88161
    A2        1.91063  -0.00343   0.00000  -0.00063  -0.00050   1.91014
    A3        1.91063  -0.00697   0.00000  -0.03134  -0.03258   1.87805
    A4        1.91063  -0.00341   0.00000  -0.00048  -0.00035   1.91028
    A5        1.91063  -0.00698   0.00000  -0.03135  -0.03259   1.87804
    A6        1.91063   0.02032   0.00000   0.09174   0.09129   2.00192
    A7        1.91063   0.00632   0.00000   0.03858   0.03791   1.94854
    A8        1.91063   0.00630   0.00000   0.03851   0.03784   1.94847
    A9        1.91063  -0.00497   0.00000  -0.01819  -0.01941   1.89122
   A10        2.09836   0.02471   0.00000   0.08998   0.08998   2.18834
   A11        2.09241  -0.01741   0.00000  -0.06340  -0.06340   2.02901
   A12        2.09241  -0.00730   0.00000  -0.02658  -0.02658   2.06584
   A13        1.91114   0.00221   0.00000   0.01199   0.01199   1.92312
    D1       -1.04914  -0.00098   0.00000  -0.00482  -0.00499  -1.05412
    D2        3.13965  -0.00263   0.00000  -0.02974  -0.03054   3.10911
    D3        3.13965   0.00264   0.00000   0.03008   0.03089  -3.11265
    D4        1.04526   0.00099   0.00000   0.00516   0.00533   1.05059
    D5        1.04526   0.00083   0.00000   0.01259   0.01290   1.05816
    D6       -1.04914  -0.00082   0.00000  -0.01233  -0.01265  -1.06179
    D7       -1.04719   0.00399   0.00000   0.03629   0.03549  -1.01171
    D8        2.09440   0.00399   0.00000   0.03626   0.03545   2.12985
    D9        1.04720  -0.00399   0.00000  -0.03632  -0.03552   1.01168
   D10       -2.09439  -0.00399   0.00000  -0.03635  -0.03555  -2.12994
   D11       -3.14159   0.00001   0.00000   0.00007   0.00007  -3.14152
   D12        0.00000   0.00001   0.00000   0.00004   0.00004   0.00004
   D13        3.14159   0.00000   0.00000   0.00004   0.00004  -3.14155
   D14        0.00000   0.00000   0.00000   0.00001   0.00001   0.00001
         Item               Value     Threshold  Converged?
 Maximum Force            0.077620     0.000450     NO 
 RMS     Force            0.018282     0.000300     NO 
 Maximum Displacement     0.181464     0.001800     NO 
 RMS     Displacement     0.065626     0.001200     NO 
 Predicted change in Energy=-1.312920D-02
 GradGradGradGradGradGradGradGradGradGradGradGradGradGradGradGradGradGrad

                          Input orientation:                          
 ---------------------------------------------------------------------
 Center     Atomic      Atomic             Coordinates (Angstroms)
 Number     Number       Type             X           Y           Z
 ---------------------------------------------------------------------
      1          6           0       -1.017751    1.285491   -0.220618
      2          1           0       -0.665429    0.241839   -0.201669
      3          1           0       -2.119151    1.269680   -0.201574
      4          7           0       -0.550337    1.946470   -1.479998
      5          1           0        0.457988    1.954827   -1.544395
      6          1           0       -0.881347    2.898837   -1.545942
      7          6           0       -0.544972    1.954065    1.061504
      8          8           0       -0.806937    1.583487    2.181788
      9          8           0        0.240976    3.065589    0.910944
     10          1           0        0.492185    3.420760    1.783554
 ---------------------------------------------------------------------
                    Distance matrix (angstroms):
                    1          2          3          4          5
     1  C    0.000000
     2  H    1.101681   0.000000
     3  H    1.101679   1.780384   0.000000
     4  N    1.497133   2.133809   2.133914   0.000000
     5  H    2.092415   2.449349   2.985672   1.010414   0.000000
     6  H    2.092361   2.985521   2.448191   1.010406   1.638590
     7  C    1.521297   2.131158   2.131147   2.541519   2.792245
     8  O    2.429978   2.738779   2.738758   3.688668   3.952514
     9  O    2.456333   3.167498   3.167520   2.755940   2.703622
    10  H    3.294841   3.922591   3.922620   3.729766   3.636670
                    6          7          8          9         10
     6  H    0.000000
     7  C    2.793657   0.000000
     8  O    3.953689   1.208714   0.000000
     9  O    2.706234   1.369623   2.215805   0.000000
    10  H    3.639304   1.936038   2.285143   0.975039   0.000000
 Stoichiometry    C2H5NO2
 Framework group  C1[X(C2H5NO2)]
 Deg. of freedom    24
 Full point group                 C1      NOp   1
 Largest Abelian subgroup         C1      NOp   1
 Largest concise Abelian subgroup C1      NOp   1
                         Standard orientation:                         
 ---------------------------------------------------------------------
 Center     Atomic      Atomic             Coordinates (Angstroms)
 Number     Number       Type             X           Y           Z
 ---------------------------------------------------------------------
      1          6           0       -0.752572   -0.801191   -0.000088
      2          1           0       -0.802317   -1.448263   -0.890326
      3          1           0       -0.802378   -1.448381    0.890058
      4          7           0       -1.919195    0.137103   -0.000194
      5          1           0       -1.920825    0.729605   -0.818653
      6          1           0       -1.922763    0.727271    0.819934
      7          6           0        0.609015   -0.122643    0.000015
      8          8           0        1.674974   -0.692487    0.000034
      9          8           0        0.603383    1.246968    0.000053
     10          1           0        1.517136    1.587199    0.000081
 ---------------------------------------------------------------------
 Rotational constants (GHZ):      9.8272466      3.9674452      2.9228333
 Standard basis: VSTO-6G (5D, 7F)
 There are    25 symmetry adapted cartesian basis functions of A   symmetry.
 There are    25 symmetry adapted basis functions of A   symmetry.
    25 basis functions,   150 primitive gaussians,    25 cartesian basis functions
    15 alpha electrons       15 beta electrons
       nuclear repulsion energy       125.2134339695 Hartrees.
 Integral buffers will be    262144 words long.
 Regular integral format.
 Two-electron integral symmetry is turned off.
 Do NDO integrals.
 One-electron integrals computed using PRISM.
 NBasis=    25 RedAO= F EigKep=  0.00D+00  NBF=    25
 NBsUse=    25 1.00D-04 EigRej=  0.00D+00 NBFU=    25
 Initial guess from the checkpoint file:  "C:\G09W\gxx.chk"
 B after Tr=     0.000000    0.000000    0.000000
         Rot=    0.999944   -0.000001   -0.000003   -0.010609 Ang=  -1.22 deg.
 Overlap will be assumed to be unity.
 Keep J ints in memory in canonical form, NReq=884130.
 Requested convergence on RMS density matrix=1.00D-08 within 128 cycles.
 Requested convergence on MAX density matrix=1.00D-06.
 Requested convergence on             energy=1.00D-06.
 No special actions if energy rises.
 SCF Done:  E(RPM6) = -0.144777906427     A.U. after   12 cycles
            NFock= 11  Conv=0.44D-08     -V/T= 0.9913
 Calling FoFJK, ICntrl=      2127 FMM=F ISym2X=0 I1Cent= 0 IOpClX= 0 NMat=1 NMatS=1 NMatT=0.
 ***** Axes restored to original set *****
 -------------------------------------------------------------------
 Center     Atomic                   Forces (Hartrees/Bohr)
 Number     Number              X              Y              Z
 -------------------------------------------------------------------
      1        6           0.018404503    0.026043844   -0.011656518
      2        1           0.001060705   -0.007551160   -0.001544467
      3        1          -0.007467413   -0.001526553   -0.001546336
      4        7          -0.009352866   -0.013233050    0.006989297
      5        1           0.002026299    0.000562103    0.002355883
      6        1          -0.000144127    0.002105547    0.002353339
      7        6          -0.007433823   -0.010512594    0.003764632
      8        8          -0.000871256   -0.001231258    0.004357216
      9        8          -0.001884695   -0.002663428   -0.013914778
     10        1           0.005662673    0.008006550    0.008841731
 -------------------------------------------------------------------
 Cartesian Forces:  Max     0.026043844 RMS     0.008534486

 GradGradGradGradGradGradGradGradGradGradGradGradGradGradGradGradGradGrad
 Berny optimization.
 Using GEDIIS/GDIIS optimizer.
 FormGI is forming the generalized inverse of G from B-inverse, IUseBI=4.
 Internal  Forces:  Max     0.016837712 RMS     0.005378799
 Search for a local minimum.
 Step number   2 out of a maximum of   46
 All quantities printed in internal units (Hartrees-Bohrs-Radians)
 Mixed Optimization -- RFO/linear search
 Update second derivatives using D2CorX and points    1    2
 DE= -1.32D-02 DEPred=-1.31D-02 R= 1.01D+00
 TightC=F SS=  1.41D+00  RLast= 2.60D-01 DXNew= 5.0454D-01 7.8058D-01
 Trust test= 1.01D+00 RLast= 2.60D-01 DXMaxT set to 5.05D-01
 ITU=  1  0
 Use linear search instead of GDIIS.
     Eigenvalues ---    0.00237   0.00472   0.00634   0.01295   0.03756
     Eigenvalues ---    0.04570   0.06258   0.10284   0.13417   0.15448
     Eigenvalues ---    0.16000   0.16331   0.20320   0.23165   0.25534
     Eigenvalues ---    0.28470   0.34025   0.36835   0.37230   0.46384
     Eigenvalues ---    0.47615   0.47688   0.54656   0.87046
 RFO step:  Lambda=-4.03381000D-03 EMin= 2.36824124D-03
 Quartic linear search produced a step of  0.04240.
 Iteration  1 RMS(Cart)=  0.04086538 RMS(Int)=  0.00146917
 Iteration  2 RMS(Cart)=  0.00181207 RMS(Int)=  0.00035983
 Iteration  3 RMS(Cart)=  0.00000254 RMS(Int)=  0.00035983
 Iteration  4 RMS(Cart)=  0.00000000 RMS(Int)=  0.00035983
 Variable       Old X    -DE/DX   Delta X   Delta X   Delta X     New X
                                 (Linear)    (Quad)   (Total)
    R1        2.08188   0.00747   0.00254   0.02745   0.02999   2.11187
    R2        2.08187   0.00746   0.00254   0.02744   0.02998   2.11185
    R3        2.82917  -0.01684   0.00137  -0.04641  -0.04504   2.78413
    R4        2.87484  -0.00165  -0.00150  -0.00988  -0.01138   2.86346
    R5        1.90941   0.00188   0.00083   0.00633   0.00717   1.91657
    R6        1.90939   0.00188   0.00083   0.00634   0.00717   1.91656
    R7        2.28414   0.00460  -0.00398  -0.00515  -0.00913   2.27501
    R8        2.58821   0.00706  -0.00484   0.00467  -0.00017   2.58804
    R9        1.84256   0.01229   0.00121   0.02619   0.02739   1.86995
    A1        1.88161  -0.00060  -0.00123  -0.01899  -0.02050   1.86110
    A2        1.91014  -0.00195  -0.00002  -0.01377  -0.01410   1.89604
    A3        1.87805   0.00046  -0.00138   0.00733   0.00591   1.88397
    A4        1.91028  -0.00195  -0.00001  -0.01372  -0.01404   1.89624
    A5        1.87804   0.00046  -0.00138   0.00735   0.00594   1.88398
    A6        2.00192   0.00344   0.00387   0.02954   0.03327   2.03518
    A7        1.94854  -0.00299   0.00161  -0.02864  -0.02776   1.92078
    A8        1.94847  -0.00298   0.00160  -0.02857  -0.02770   1.92077
    A9        1.89122   0.00126  -0.00082  -0.01873  -0.02103   1.87019
   A10        2.18834   0.00706   0.00382   0.03881   0.04263   2.23096
   A11        2.02901  -0.01358  -0.00269  -0.06257  -0.06526   1.96376
   A12        2.06584   0.00652  -0.00113   0.02376   0.02263   2.08847
   A13        1.92312   0.00890   0.00051   0.05770   0.05820   1.98133
    D1       -1.05412  -0.00281  -0.00021  -0.05157  -0.05121  -1.10533
    D2        3.10911  -0.00019  -0.00130   0.01306   0.01152   3.12064
    D3       -3.11265   0.00020   0.00131  -0.01242  -0.01087  -3.12352
    D4        1.05059   0.00281   0.00023   0.05221   0.05186   1.10245
    D5        1.05816  -0.00130   0.00055  -0.03203  -0.03108   1.02708
    D6       -1.06179   0.00131  -0.00054   0.03259   0.03165  -1.03014
    D7       -1.01171   0.00011   0.00150   0.00729   0.00889  -1.00281
    D8        2.12985   0.00011   0.00150   0.00732   0.00892   2.13877
    D9        1.01168  -0.00012  -0.00151  -0.00740  -0.00900   1.00268
   D10       -2.12994  -0.00012  -0.00151  -0.00737  -0.00898  -2.13892
   D11       -3.14152   0.00000   0.00000  -0.00001  -0.00001  -3.14152
   D12        0.00004   0.00000   0.00000   0.00002   0.00002   0.00006
   D13       -3.14155   0.00000   0.00000   0.00001   0.00001  -3.14154
   D14        0.00001   0.00000   0.00000   0.00004   0.00004   0.00005
         Item               Value     Threshold  Converged?
 Maximum Force            0.016838     0.000450     NO 
 RMS     Force            0.005379     0.000300     NO 
 Maximum Displacement     0.120028     0.001800     NO 
 RMS     Displacement     0.041964     0.001200     NO 
 Predicted change in Energy=-2.097642D-03
 GradGradGradGradGradGradGradGradGradGradGradGradGradGradGradGradGradGrad

                          Input orientation:                          
 ---------------------------------------------------------------------
 Center     Atomic      Atomic             Coordinates (Angstroms)
 Number     Number       Type             X           Y           Z
 ---------------------------------------------------------------------
      1          6           0       -1.009717    1.296866   -0.224092
      2          1           0       -0.663286    0.234368   -0.226754
      3          1           0       -2.126911    1.269076   -0.226626
      4          7           0       -0.551803    1.944454   -1.465685
      5          1           0        0.461802    1.965696   -1.493427
      6          1           0       -0.872064    2.906321   -1.494749
      7          6           0       -0.561455    1.930774    1.077172
      8          8           0       -0.814484    1.572821    2.198413
      9          8           0        0.220897    3.037300    0.879304
     10          1           0        0.522243    3.463367    1.720038
 ---------------------------------------------------------------------
                    Distance matrix (angstroms):
                    1          2          3          4          5
     1  C    0.000000
     2  H    1.117553   0.000000
     3  H    1.117542   1.792434   0.000000
     4  N    1.473298   2.114656   2.114797   0.000000
     5  H    2.055216   2.422350   2.965046   1.014207   0.000000
     6  H    2.055204   2.964917   2.421435   1.014200   1.632170
     7  C    1.515278   2.142052   2.142052   2.542912   2.766994
     8  O    2.445976   2.774122   2.774084   3.692253   3.925932
     9  O    2.400209   3.140314   3.140365   2.700065   2.614617
    10  H    3.289418   3.952457   3.952522   3.689106   3.545846
                    6          7          8          9         10
     6  H    0.000000
     7  C    2.768203   0.000000
     8  O    3.926957   1.203884   0.000000
     9  O    2.616839   1.369534   2.226378   0.000000
    10  H    3.548133   1.984066   2.364286   0.989534   0.000000
 Stoichiometry    C2H5NO2
 Framework group  C1[X(C2H5NO2)]
 Deg. of freedom    24
 Full point group                 C1      NOp   1
 Largest Abelian subgroup         C1      NOp   1
 Largest concise Abelian subgroup C1      NOp   1
                         Standard orientation:                         
 ---------------------------------------------------------------------
 Center     Atomic      Atomic             Coordinates (Angstroms)
 Number     Number       Type             X           Y           Z
 ---------------------------------------------------------------------
      1          6           0       -0.739328   -0.790804   -0.000065
      2          1           0       -0.799721   -1.455594   -0.896352
      3          1           0       -0.799744   -1.455763    0.896081
      4          7           0       -1.907569    0.106871   -0.000168
      5          1           0       -1.882963    0.709546   -0.815517
      6          1           0       -1.884584    0.707605    0.816650
      7          6           0        0.624285   -0.130025    0.000008
      8          8           0        1.703351   -0.663834    0.000031
      9          8           0        0.544520    1.237185    0.000045
     10          1           0        1.427290    1.684279    0.000046
 ---------------------------------------------------------------------
 Rotational constants (GHZ):     10.0180663      3.9903637      2.9524312
 Standard basis: VSTO-6G (5D, 7F)
 There are    25 symmetry adapted cartesian basis functions of A   symmetry.
 There are    25 symmetry adapted basis functions of A   symmetry.
    25 basis functions,   150 primitive gaussians,    25 cartesian basis functions
    15 alpha electrons       15 beta electrons
       nuclear repulsion energy       125.4521305526 Hartrees.
 Integral buffers will be    262144 words long.
 Regular integral format.
 Two-electron integral symmetry is turned off.
 Do NDO integrals.
 One-electron integrals computed using PRISM.
 NBasis=    25 RedAO= F EigKep=  0.00D+00  NBF=    25
 NBsUse=    25 1.00D-04 EigRej=  0.00D+00 NBFU=    25
 Initial guess from the checkpoint file:  "C:\G09W\gxx.chk"
 B after Tr=     0.000000    0.000000    0.000000
         Rot=    0.999955    0.000010   -0.000004   -0.009478 Ang=   1.09 deg.
 Overlap will be assumed to be unity.
 Keep J ints in memory in canonical form, NReq=884130.
 Requested convergence on RMS density matrix=1.00D-08 within 128 cycles.
 Requested convergence on MAX density matrix=1.00D-06.
 Requested convergence on             energy=1.00D-06.
 No special actions if energy rises.
 SCF Done:  E(RPM6) = -0.146966356186     A.U. after   11 cycles
            NFock= 10  Conv=0.94D-08     -V/T= 0.9911
 Calling FoFJK, ICntrl=      2127 FMM=F ISym2X=0 I1Cent= 0 IOpClX= 0 NMat=1 NMatS=1 NMatT=0.
 ***** Axes restored to original set *****
 -------------------------------------------------------------------
 Center     Atomic                   Forces (Hartrees/Bohr)
 Number     Number              X              Y              Z
 -------------------------------------------------------------------
      1        6           0.001832009    0.002587725   -0.000583373
      2        1          -0.001073233   -0.001839768    0.000411555
      3        1          -0.001371728   -0.001629245    0.000406246
      4        7          -0.000587877   -0.000817705    0.000013086
      5        1           0.002387208    0.000833082   -0.001387876
      6        1          -0.000005967    0.002529833   -0.001384933
      7        6          -0.002756327   -0.003891089    0.000411776
      8        8          -0.001337736   -0.001893370    0.006360334
      9        8           0.002667378    0.003772590   -0.006391531
     10        1           0.000246273    0.000347946    0.002144716
 -------------------------------------------------------------------
 Cartesian Forces:  Max     0.006391531 RMS     0.002402552

 GradGradGradGradGradGradGradGradGradGradGradGradGradGradGradGradGradGrad
 Berny optimization.
 Using GEDIIS/GDIIS optimizer.
 FormGI is forming the generalized inverse of G from B-inverse, IUseBI=4.
 Internal  Forces:  Max     0.006767840 RMS     0.002196373
 Search for a local minimum.
 Step number   3 out of a maximum of   46
 All quantities printed in internal units (Hartrees-Bohrs-Radians)
 Mixed Optimization -- RFO/linear search
 Update second derivatives using D2CorX and points    1    2    3
 DE= -2.19D-03 DEPred=-2.10D-03 R= 1.04D+00
 TightC=F SS=  1.41D+00  RLast= 1.63D-01 DXNew= 8.4853D-01 4.9014D-01
 Trust test= 1.04D+00 RLast= 1.63D-01 DXMaxT set to 5.05D-01
 ITU=  1  1  0
 Use linear search instead of GDIIS.
     Eigenvalues ---    0.00237   0.00465   0.00634   0.01295   0.04312
     Eigenvalues ---    0.04334   0.05808   0.10675   0.13611   0.14280
     Eigenvalues ---    0.16000   0.17609   0.17818   0.22681   0.25482
     Eigenvalues ---    0.28664   0.35187   0.37230   0.40440   0.45911
     Eigenvalues ---    0.47688   0.47788   0.54532   0.89473
 RFO step:  Lambda=-6.13269875D-04 EMin= 2.36824126D-03
 Quartic linear search produced a step of  0.06215.
 Iteration  1 RMS(Cart)=  0.01535616 RMS(Int)=  0.00014144
 Iteration  2 RMS(Cart)=  0.00021089 RMS(Int)=  0.00006989
 Iteration  3 RMS(Cart)=  0.00000002 RMS(Int)=  0.00006989
 Variable       Old X    -DE/DX   Delta X   Delta X   Delta X     New X
                                 (Linear)    (Quad)   (Total)
    R1        2.11187   0.00142   0.00186   0.00779   0.00965   2.12152
    R2        2.11185   0.00141   0.00186   0.00777   0.00964   2.12148
    R3        2.78413   0.00400  -0.00280   0.00959   0.00679   2.79092
    R4        2.86346   0.00112  -0.00071   0.00244   0.00174   2.86520
    R5        1.91657   0.00244   0.00045   0.00646   0.00690   1.92347
    R6        1.91656   0.00244   0.00045   0.00645   0.00690   1.92346
    R7        2.27501   0.00677  -0.00057   0.00594   0.00537   2.28038
    R8        2.58804   0.00561  -0.00001   0.01170   0.01169   2.59973
    R9        1.86995   0.00205   0.00170   0.00672   0.00842   1.87837
    A1        1.86110  -0.00113  -0.00127  -0.02040  -0.02169   1.83941
    A2        1.89604   0.00059  -0.00088   0.00538   0.00445   1.90049
    A3        1.88397  -0.00007   0.00037  -0.00054  -0.00023   1.88373
    A4        1.89624   0.00058  -0.00087   0.00534   0.00442   1.90066
    A5        1.88398  -0.00007   0.00037  -0.00055  -0.00024   1.88374
    A6        2.03518  -0.00002   0.00207   0.00786   0.00986   2.04504
    A7        1.92078   0.00217  -0.00173   0.01686   0.01499   1.93577
    A8        1.92077   0.00217  -0.00172   0.01686   0.01499   1.93576
    A9        1.87019  -0.00155  -0.00131  -0.00466  -0.00625   1.86394
   A10        2.23096   0.00275   0.00265   0.01708   0.01973   2.25069
   A11        1.96376  -0.00515  -0.00406  -0.02831  -0.03236   1.93139
   A12        2.08847   0.00240   0.00141   0.01123   0.01263   2.10110
   A13        1.98133  -0.00144   0.00362  -0.00485  -0.00123   1.98010
    D1       -1.10533   0.00001  -0.00318  -0.00135  -0.00447  -1.10980
    D2        3.12064  -0.00072   0.00072  -0.01607  -0.01544   3.10519
    D3       -3.12352   0.00073  -0.00068   0.01705   0.01646  -3.10706
    D4        1.10245  -0.00001   0.00322   0.00233   0.00549   1.10794
    D5        1.02708   0.00037  -0.00193   0.00786   0.00601   1.03309
    D6       -1.03014  -0.00036   0.00197  -0.00685  -0.00496  -1.03510
    D7       -1.00281   0.00070   0.00055   0.01224   0.01280  -0.99002
    D8        2.13877   0.00070   0.00055   0.01214   0.01270   2.15147
    D9        1.00268  -0.00070  -0.00056  -0.01212  -0.01269   0.98999
   D10       -2.13892  -0.00070  -0.00056  -0.01222  -0.01279  -2.15171
   D11       -3.14152   0.00000   0.00000   0.00003   0.00003  -3.14149
   D12        0.00006   0.00000   0.00000  -0.00007  -0.00007   0.00000
   D13       -3.14154   0.00000   0.00000   0.00005   0.00005  -3.14149
   D14        0.00005   0.00000   0.00000  -0.00004  -0.00004   0.00001
         Item               Value     Threshold  Converged?
 Maximum Force            0.006768     0.000450     NO 
 RMS     Force            0.002196     0.000300     NO 
 Maximum Displacement     0.039672     0.001800     NO 
 RMS     Displacement     0.015414     0.001200     NO 
 Predicted change in Energy=-3.172859D-04
 GradGradGradGradGradGradGradGradGradGradGradGradGradGradGradGradGradGrad

                          Input orientation:                          
 ---------------------------------------------------------------------
 Center     Atomic      Atomic             Coordinates (Angstroms)
 Number     Number       Type             X           Y           Z
 ---------------------------------------------------------------------
      1          6           0       -1.007496    1.300010   -0.219495
      2          1           0       -0.670986    0.228985   -0.225012
      3          1           0       -2.129406    1.259851   -0.224870
      4          7           0       -0.546206    1.952547   -1.461513
      5          1           0        0.470513    1.976030   -1.503558
      6          1           0       -0.864736    2.918321   -1.504398
      7          6           0       -0.568906    1.920326    1.092640
      8          8           0       -0.818164    1.567545    2.219407
      9          8           0        0.214583    3.028549    0.867724
     10          1           0        0.526027    3.468879    1.702667
 ---------------------------------------------------------------------
                    Distance matrix (angstroms):
                    1          2          3          4          5
     1  C    0.000000
     2  H    1.122660   0.000000
     3  H    1.122641   1.785966   0.000000
     4  N    1.476889   2.124893   2.125002   0.000000
     5  H    2.071312   2.447420   2.984549   1.017859   0.000000
     6  H    2.071301   2.984442   2.446856   1.017851   1.634259
     7  C    1.516196   2.146454   2.146444   2.554457   2.797095
     8  O    2.460826   2.790804   2.790793   3.710978   3.960810
     9  O    2.379783   3.133028   3.133104   2.676177   2.606967
    10  H    3.278779   3.955465   3.955570   3.668922   3.537169
                    6          7          8          9         10
     6  H    0.000000
     7  C    2.797877   0.000000
     8  O    3.961500   1.206726   0.000000
     9  O    2.608455   1.375718   2.242352   0.000000
    10  H    3.538729   1.992242   2.385150   0.993991   0.000000
 Stoichiometry    C2H5NO2
 Framework group  C1[X(C2H5NO2)]
 Deg. of freedom    24
 Full point group                 C1      NOp   1
 Largest Abelian subgroup         C1      NOp   1
 Largest concise Abelian subgroup C1      NOp   1
                         Standard orientation:                         
 ---------------------------------------------------------------------
 Center     Atomic      Atomic             Coordinates (Angstroms)
 Number     Number       Type             X           Y           Z
 ---------------------------------------------------------------------
      1          6           0       -0.725322   -0.796920   -0.000045
      2          1           0       -0.777975   -1.475175   -0.893109
      3          1           0       -0.777999   -1.475354    0.892857
      4          7           0       -1.908868    0.086495   -0.000114
      5          1           0       -1.908664    0.694060   -0.816754
      6          1           0       -1.909739    0.692730    0.817504
      7          6           0        0.636387   -0.130137    0.000040
      8          8           0        1.730449   -0.639270    0.000011
      9          8           0        0.506233    1.239411    0.000031
     10          1           0        1.376604    1.719487   -0.000007
 ---------------------------------------------------------------------
 Rotational constants (GHZ):     10.0526388      3.9648242      2.9411123
 Standard basis: VSTO-6G (5D, 7F)
 There are    25 symmetry adapted cartesian basis functions of A   symmetry.
 There are    25 symmetry adapted basis functions of A   symmetry.
    25 basis functions,   150 primitive gaussians,    25 cartesian basis functions
    15 alpha electrons       15 beta electrons
       nuclear repulsion energy       125.2856240948 Hartrees.
 Integral buffers will be    262144 words long.
 Regular integral format.
 Two-electron integral symmetry is turned off.
 Do NDO integrals.
 One-electron integrals computed using PRISM.
 NBasis=    25 RedAO= F EigKep=  0.00D+00  NBF=    25
 NBsUse=    25 1.00D-04 EigRej=  0.00D+00 NBFU=    25
 Initial guess from the checkpoint file:  "C:\G09W\gxx.chk"
 B after Tr=     0.000000    0.000000    0.000000
         Rot=    0.999966    0.000017   -0.000006   -0.008238 Ang=   0.94 deg.
 Overlap will be assumed to be unity.
 Keep J ints in memory in canonical form, NReq=884130.
 Requested convergence on RMS density matrix=1.00D-08 within 128 cycles.
 Requested convergence on MAX density matrix=1.00D-06.
 Requested convergence on             energy=1.00D-06.
 No special actions if energy rises.
 SCF Done:  E(RPM6) = -0.147213331584     A.U. after   11 cycles
            NFock= 10  Conv=0.37D-08     -V/T= 0.9911
 Calling FoFJK, ICntrl=      2127 FMM=F ISym2X=0 I1Cent= 0 IOpClX= 0 NMat=1 NMatS=1 NMatT=0.
 ***** Axes restored to original set *****
 -------------------------------------------------------------------
 Center     Atomic                   Forces (Hartrees/Bohr)
 Number     Number              X              Y              Z
 -------------------------------------------------------------------
      1        6           0.000150709    0.000209080   -0.001429404
      2        1          -0.000599294    0.001101597   -0.000238575
      3        1           0.001237175   -0.000199055   -0.000245166
      4        7          -0.000844419   -0.001184568    0.001219303
      5        1          -0.000182300   -0.000072620    0.000768802
      6        1          -0.000002582   -0.000192334    0.000771372
      7        6          -0.001000839   -0.001428171    0.000574653
      8        8           0.000882999    0.001254893   -0.001450267
      9        8           0.000841081    0.001192753   -0.000270016
     10        1          -0.000482529   -0.000681575    0.000299297
 -------------------------------------------------------------------
 Cartesian Forces:  Max     0.001450267 RMS     0.000837721

 GradGradGradGradGradGradGradGradGradGradGradGradGradGradGradGradGradGrad
 Berny optimization.
 Using GEDIIS/GDIIS optimizer.
 FormGI is forming the generalized inverse of G from B-inverse, IUseBI=4.
 Internal  Forces:  Max     0.003282571 RMS     0.000916073
 Search for a local minimum.
 Step number   4 out of a maximum of   46
 All quantities printed in internal units (Hartrees-Bohrs-Radians)
 Mixed Optimization -- En-DIIS/RFO-DIIS
 Update second derivatives using D2CorX and points    1    2    3    4
 DE= -2.47D-04 DEPred=-3.17D-04 R= 7.78D-01
 TightC=F SS=  1.41D+00  RLast= 6.73D-02 DXNew= 8.4853D-01 2.0191D-01
 Trust test= 7.78D-01 RLast= 6.73D-02 DXMaxT set to 5.05D-01
 ITU=  1  1  1  0
 Use linear search instead of GDIIS.
     Eigenvalues ---    0.00237   0.00462   0.00634   0.01295   0.04090
     Eigenvalues ---    0.04197   0.05656   0.10823   0.13684   0.15479
     Eigenvalues ---    0.16000   0.16872   0.17899   0.22481   0.26365
     Eigenvalues ---    0.28782   0.35518   0.37230   0.43118   0.44823
     Eigenvalues ---    0.47688   0.49980   0.54490   0.89838
 RFO step:  Lambda=-6.49996092D-05 EMin= 2.36824126D-03
 Quartic linear search produced a step of -0.17567.
 Iteration  1 RMS(Cart)=  0.00720149 RMS(Int)=  0.00002711
 Iteration  2 RMS(Cart)=  0.00002710 RMS(Int)=  0.00000586
 Iteration  3 RMS(Cart)=  0.00000000 RMS(Int)=  0.00000586
 Variable       Old X    -DE/DX   Delta X   Delta X   Delta X     New X
                                 (Linear)    (Quad)   (Total)
    R1        2.12152  -0.00123  -0.00170  -0.00061  -0.00231   2.11921
    R2        2.12148  -0.00123  -0.00169  -0.00061  -0.00231   2.11918
    R3        2.79092  -0.00328  -0.00119  -0.00477  -0.00597   2.78495
    R4        2.86520  -0.00052  -0.00030  -0.00093  -0.00124   2.86396
    R5        1.92347  -0.00022  -0.00121   0.00138   0.00017   1.92364
    R6        1.92346  -0.00021  -0.00121   0.00138   0.00017   1.92363
    R7        2.28038  -0.00190  -0.00094  -0.00065  -0.00160   2.27878
    R8        2.59973   0.00061  -0.00205   0.00388   0.00183   2.60156
    R9        1.87837  -0.00020  -0.00148   0.00140  -0.00008   1.87830
    A1        1.83941  -0.00031   0.00381  -0.00676  -0.00295   1.83647
    A2        1.90049   0.00028  -0.00078   0.00184   0.00107   1.90156
    A3        1.88373   0.00066   0.00004   0.00290   0.00295   1.88668
    A4        1.90066   0.00027  -0.00078   0.00179   0.00102   1.90168
    A5        1.88374   0.00067   0.00004   0.00290   0.00295   1.88669
    A6        2.04504  -0.00147  -0.00173  -0.00322  -0.00494   2.04011
    A7        1.93577  -0.00106  -0.00263  -0.00326  -0.00590   1.92987
    A8        1.93576  -0.00106  -0.00263  -0.00325  -0.00589   1.92986
    A9        1.86394   0.00057   0.00110  -0.00355  -0.00247   1.86147
   A10        2.25069   0.00073  -0.00347   0.00708   0.00361   2.25431
   A11        1.93139   0.00061   0.00569  -0.00534   0.00035   1.93174
   A12        2.10110  -0.00135  -0.00222  -0.00174  -0.00396   2.09714
   A13        1.98010  -0.00162   0.00022  -0.01004  -0.00983   1.97027
    D1       -1.10980  -0.00037   0.00079  -0.00696  -0.00617  -1.11597
    D2        3.10519   0.00029   0.00271   0.00165   0.00436   3.10955
    D3       -3.10706  -0.00029  -0.00289  -0.00090  -0.00379  -3.11085
    D4        1.10794   0.00037  -0.00096   0.00771   0.00674   1.11468
    D5        1.03309  -0.00033  -0.00106  -0.00391  -0.00496   1.02813
    D6       -1.03510   0.00033   0.00087   0.00470   0.00556  -1.02953
    D7       -0.99002  -0.00015  -0.00225   0.00223  -0.00002  -0.99004
    D8        2.15147  -0.00014  -0.00223   0.00277   0.00054   2.15201
    D9        0.98999   0.00015   0.00223  -0.00275  -0.00052   0.98947
   D10       -2.15171   0.00015   0.00225  -0.00221   0.00003  -2.15167
   D11       -3.14149   0.00000  -0.00001  -0.00030  -0.00030   3.14139
   D12        0.00000   0.00000   0.00001   0.00024   0.00025   0.00025
   D13       -3.14149   0.00000  -0.00001  -0.00027  -0.00028   3.14141
   D14        0.00001   0.00000   0.00001   0.00021   0.00022   0.00023
         Item               Value     Threshold  Converged?
 Maximum Force            0.003283     0.000450     NO 
 RMS     Force            0.000916     0.000300     NO 
 Maximum Displacement     0.022686     0.001800     NO 
 RMS     Displacement     0.007213     0.001200     NO 
 Predicted change in Energy=-4.418103D-05
 GradGradGradGradGradGradGradGradGradGradGradGradGradGradGradGradGradGrad

                          Input orientation:                          
 ---------------------------------------------------------------------
 Center     Atomic      Atomic             Coordinates (Angstroms)
 Number     Number       Type             X           Y           Z
 ---------------------------------------------------------------------
      1          6           0       -1.008589    1.298407   -0.221488
      2          1           0       -0.674087    0.228040   -0.228295
      3          1           0       -2.129215    1.256722   -0.228006
      4          7           0       -0.546587    1.952116   -1.458865
      5          1           0        0.470517    1.977035   -1.491981
      6          1           0       -0.863348    2.918938   -1.492393
      7          6           0       -0.568199    1.920983    1.088214
      8          8           0       -0.813486    1.574140    2.216788
      9          8           0        0.215324    3.029769    0.860284
     10          1           0        0.522893    3.464895    1.699334
 ---------------------------------------------------------------------
                    Distance matrix (angstroms):
                    1          2          3          4          5
     1  C    0.000000
     2  H    1.121438   0.000000
     3  H    1.121420   1.782018   0.000000
     4  N    1.473732   2.122027   2.122098   0.000000
     5  H    2.064569   2.442540   2.979110   1.017948   0.000000
     6  H    2.064562   2.979042   2.442142   1.017942   1.632905
     7  C    1.515540   2.147200   2.147196   2.547361   2.781992
     8  O    2.461561   2.794611   2.794444   3.704663   3.945372
     9  O    2.380296   3.134605   3.134476   2.668388   2.589696
    10  H    3.275464   3.952942   3.952765   3.661490   3.521501
                    6          7          8          9         10
     6  H    0.000000
     7  C    2.782545   0.000000
     8  O    3.945756   1.205880   0.000000
     9  O    2.590541   1.376687   2.239958   0.000000
    10  H    3.522336   1.986860   2.372472   0.993951   0.000000
 Stoichiometry    C2H5NO2
 Framework group  C1[X(C2H5NO2)]
 Deg. of freedom    24
 Full point group                 C1      NOp   1
 Largest Abelian subgroup         C1      NOp   1
 Largest concise Abelian subgroup C1      NOp   1
                         Standard orientation:                         
 ---------------------------------------------------------------------
 Center     Atomic      Atomic             Coordinates (Angstroms)
 Number     Number       Type             X           Y           Z
 ---------------------------------------------------------------------
      1          6           0       -0.727688   -0.798225   -0.000005
      2          1           0       -0.783626   -1.476929   -0.890991
      3          1           0       -0.783494   -1.476850    0.891027
      4          7           0       -1.903956    0.089625   -0.000054
      5          1           0       -1.892996    0.697861   -0.816232
      6          1           0       -1.893612    0.697125    0.816672
      7          6           0        0.633718   -0.132314   -0.000142
      8          8           0        1.728628   -0.637605    0.000057
      9          8           0        0.504538    1.238299    0.000028
     10          1           0        1.379916    1.709099    0.000109
 ---------------------------------------------------------------------
 Rotational constants (GHZ):     10.0653931      3.9801425      2.9503087
 Standard basis: VSTO-6G (5D, 7F)
 There are    25 symmetry adapted cartesian basis functions of A   symmetry.
 There are    25 symmetry adapted basis functions of A   symmetry.
    25 basis functions,   150 primitive gaussians,    25 cartesian basis functions
    15 alpha electrons       15 beta electrons
       nuclear repulsion energy       125.3739573687 Hartrees.
 Integral buffers will be    262144 words long.
 Regular integral format.
 Two-electron integral symmetry is turned off.
 Do NDO integrals.
 One-electron integrals computed using PRISM.
 NBasis=    25 RedAO= F EigKep=  0.00D+00  NBF=    25
 NBsUse=    25 1.00D-04 EigRej=  0.00D+00 NBFU=    25
 Initial guess from the checkpoint file:  "C:\G09W\gxx.chk"
 B after Tr=     0.000000    0.000000    0.000000
         Rot=    1.000000    0.000023   -0.000007    0.000559 Ang=   0.06 deg.
 Overlap will be assumed to be unity.
 Keep J ints in memory in canonical form, NReq=884130.
 Requested convergence on RMS density matrix=1.00D-08 within 128 cycles.
 Requested convergence on MAX density matrix=1.00D-06.
 Requested convergence on             energy=1.00D-06.
 No special actions if energy rises.
 SCF Done:  E(RPM6) = -0.147262178064     A.U. after   10 cycles
            NFock=  9  Conv=0.86D-08     -V/T= 0.9911
 Calling FoFJK, ICntrl=      2127 FMM=F ISym2X=0 I1Cent= 0 IOpClX= 0 NMat=1 NMatS=1 NMatT=0.
 ***** Axes restored to original set *****
 -------------------------------------------------------------------
 Center     Atomic                   Forces (Hartrees/Bohr)
 Number     Number              X              Y              Z
 -------------------------------------------------------------------
      1        6          -0.000597272   -0.000883684    0.000425129
      2        1          -0.000312799    0.000390363   -0.000006606
      3        1           0.000469961   -0.000163583   -0.000007027
      4        7           0.000171356    0.000248237   -0.000232046
      5        1           0.000194476    0.000000337   -0.000059247
      6        1          -0.000061453    0.000186786   -0.000056652
      7        6          -0.000889109   -0.001178238   -0.000183004
      8        8           0.000347269    0.000461905   -0.000143431
      9        8           0.000595119    0.000822402   -0.000019051
     10        1           0.000082451    0.000115475    0.000281935
 -------------------------------------------------------------------
 Cartesian Forces:  Max     0.001178238 RMS     0.000437478

 GradGradGradGradGradGradGradGradGradGradGradGradGradGradGradGradGradGrad
 Berny optimization.
 Using GEDIIS/GDIIS optimizer.
 FormGI is forming the generalized inverse of G from B-inverse, IUseBI=4.
 GSVD:  received Info=                   1 from GESDD.
 Internal  Forces:  Max     0.001097473 RMS     0.000314275
 Search for a local minimum.
 Step number   5 out of a maximum of   46
 All quantities printed in internal units (Hartrees-Bohrs-Radians)
 Mixed Optimization -- En-DIIS/RFO-DIIS
 Swapping is turned off.
 Update second derivatives using D2CorX and points    1    2    3    4    5
 DE= -4.88D-05 DEPred=-4.42D-05 R= 1.11D+00
 TightC=F SS=  1.41D+00  RLast= 2.19D-02 DXNew= 8.4853D-01 6.5782D-02
 Trust test= 1.11D+00 RLast= 2.19D-02 DXMaxT set to 5.05D-01
 ITU=  1  1  1  1  0
     Eigenvalues ---    0.00237   0.00461   0.00633   0.01295   0.04218
     Eigenvalues ---    0.04247   0.05601   0.10772   0.13664   0.15774
     Eigenvalues ---    0.16000   0.16507   0.17870   0.20144   0.24981
     Eigenvalues ---    0.28685   0.34877   0.37230   0.42102   0.45744
     Eigenvalues ---    0.47688   0.54055   0.56130   0.90053
 En-DIIS/RFO-DIIS IScMMF=        0 using points:     5    4
 RFO step:  Lambda=-6.77969416D-06.
 DidBck=F Rises=F RFO-DIIS coefs:    1.11150   -0.11150
 Iteration  1 RMS(Cart)=  0.00225106 RMS(Int)=  0.00000433
 Iteration  2 RMS(Cart)=  0.00000412 RMS(Int)=  0.00000206
 Iteration  3 RMS(Cart)=  0.00000000 RMS(Int)=  0.00000206
 Variable       Old X    -DE/DX   Delta X   Delta X   Delta X     New X
                                 (Linear)    (Quad)   (Total)
    R1        2.11921  -0.00047  -0.00026  -0.00147  -0.00173   2.11748
    R2        2.11918  -0.00046  -0.00026  -0.00147  -0.00172   2.11745
    R3        2.78495   0.00058  -0.00067   0.00147   0.00081   2.78575
    R4        2.86396   0.00008  -0.00014   0.00030   0.00016   2.86412
    R5        1.92364   0.00020   0.00002   0.00047   0.00049   1.92414
    R6        1.92363   0.00020   0.00002   0.00048   0.00050   1.92413
    R7        2.27878  -0.00034  -0.00018  -0.00029  -0.00047   2.27831
    R8        2.60156   0.00110   0.00020   0.00336   0.00357   2.60513
    R9        1.87830   0.00031  -0.00001   0.00068   0.00067   1.87897
    A1        1.83647  -0.00017  -0.00033  -0.00212  -0.00245   1.83401
    A2        1.90156   0.00016   0.00012   0.00097   0.00109   1.90266
    A3        1.88668   0.00017   0.00033   0.00124   0.00157   1.88825
    A4        1.90168   0.00015   0.00011   0.00092   0.00103   1.90271
    A5        1.88669   0.00017   0.00033   0.00117   0.00150   1.88820
    A6        2.04011  -0.00045  -0.00055  -0.00223  -0.00278   2.03733
    A7        1.92987   0.00007  -0.00066   0.00048  -0.00018   1.92969
    A8        1.92986   0.00007  -0.00066   0.00048  -0.00018   1.92968
    A9        1.86147  -0.00003  -0.00028   0.00017  -0.00011   1.86136
   A10        2.25431   0.00033   0.00040   0.00167   0.00207   2.25637
   A11        1.93174   0.00045   0.00004   0.00177   0.00181   1.93355
   A12        2.09714  -0.00078  -0.00044  -0.00344  -0.00388   2.09326
   A13        1.97027  -0.00006  -0.00110  -0.00062  -0.00171   1.96856
    D1       -1.11597   0.00000  -0.00069  -0.00009  -0.00078  -1.11675
    D2        3.10955  -0.00004   0.00049  -0.00090  -0.00042   3.10913
    D3       -3.11085   0.00004  -0.00042   0.00142   0.00100  -3.10985
    D4        1.11468   0.00000   0.00075   0.00060   0.00135   1.11603
    D5        1.02813   0.00003  -0.00055   0.00073   0.00018   1.02830
    D6       -1.02953  -0.00002   0.00062  -0.00008   0.00053  -1.02900
    D7       -0.99004   0.00003   0.00000   0.00260   0.00260  -0.98744
    D8        2.15201   0.00001   0.00006  -0.00122  -0.00116   2.15085
    D9        0.98947  -0.00001  -0.00006   0.00133   0.00127   0.99074
   D10       -2.15167  -0.00002   0.00000  -0.00249  -0.00248  -2.15416
   D11        3.14139   0.00001  -0.00003   0.00190   0.00187  -3.13993
   D12        0.00025  -0.00001   0.00003  -0.00191  -0.00189  -0.00164
   D13        3.14141   0.00001  -0.00003   0.00176   0.00172  -3.14005
   D14        0.00023  -0.00001   0.00002  -0.00166  -0.00163  -0.00141
         Item               Value     Threshold  Converged?
 Maximum Force            0.001097     0.000450     NO 
 RMS     Force            0.000314     0.000300     NO 
 Maximum Displacement     0.006459     0.001800     NO 
 RMS     Displacement     0.002251     0.001200     NO 
 Predicted change in Energy=-6.959686D-06
 GradGradGradGradGradGradGradGradGradGradGradGradGradGradGradGradGradGrad

                          Input orientation:                          
 ---------------------------------------------------------------------
 Center     Atomic      Atomic             Coordinates (Angstroms)
 Number     Number       Type             X           Y           Z
 ---------------------------------------------------------------------
      1          6           0       -1.009754    1.297002   -0.222029
      2          1           0       -0.676183    0.227304   -0.228865
      3          1           0       -2.129385    1.253304   -0.229536
      4          7           0       -0.546308    1.952524   -1.458415
      5          1           0        0.471093    1.977936   -1.489993
      6          1           0       -0.863414    2.919543   -1.490974
      7          6           0       -0.569512    1.921495    1.086907
      8          8           0       -0.811530    1.576826    2.216589
      9          8           0        0.216518    3.030987    0.859634
     10          1           0        0.523698    3.464123    1.700276
 ---------------------------------------------------------------------
                    Distance matrix (angstroms):
                    1          2          3          4          5
     1  C    0.000000
     2  H    1.120523   0.000000
     3  H    1.120509   1.778896   0.000000
     4  N    1.474158   2.122509   2.122542   0.000000
     5  H    2.065021   2.443645   2.979317   1.018209   0.000000
     6  H    2.065012   2.979283   2.443412   1.018205   1.633259
     7  C    1.515625   2.147771   2.147721   2.545617   2.779651
     8  O    2.462610   2.796386   2.797308   3.703666   3.942684
     9  O    2.383367   3.137258   3.138425   2.668021   2.587367
    10  H    3.277673   3.954529   3.956102   3.661580   3.519848
                    6          7          8          9         10
     6  H    0.000000
     7  C    2.779919   0.000000
     8  O    3.943551   1.205632   0.000000
     9  O    2.589214   1.378575   2.238927   0.000000
    10  H    3.522033   1.987720   2.368819   0.994306   0.000000
 Stoichiometry    C2H5NO2
 Framework group  C1[X(C2H5NO2)]
 Deg. of freedom    24
 Full point group                 C1      NOp   1
 Largest Abelian subgroup         C1      NOp   1
 Largest concise Abelian subgroup C1      NOp   1
                         Standard orientation:                         
 ---------------------------------------------------------------------
 Center     Atomic      Atomic             Coordinates (Angstroms)
 Number     Number       Type             X           Y           Z
 ---------------------------------------------------------------------
      1          6           0       -0.729342   -0.799567   -0.000210
      2          1           0       -0.786356   -1.477946   -0.890222
      3          1           0       -0.787279   -1.479324    0.888673
      4          7           0       -1.903068    0.092346   -0.000175
      5          1           0       -1.889577    0.701232   -0.816156
      6          1           0       -1.890824    0.699512    0.817101
      7          6           0        0.632444   -0.134244    0.001063
      8          8           0        1.727941   -0.637668   -0.000268
      9          8           0        0.506201    1.238538   -0.000057
     10          1           0        1.383761    1.706014   -0.000680
 ---------------------------------------------------------------------
 Rotational constants (GHZ):     10.0549868      3.9818878      2.9501999
 Standard basis: VSTO-6G (5D, 7F)
 There are    25 symmetry adapted cartesian basis functions of A   symmetry.
 There are    25 symmetry adapted basis functions of A   symmetry.
    25 basis functions,   150 primitive gaussians,    25 cartesian basis functions
    15 alpha electrons       15 beta electrons
       nuclear repulsion energy       125.3666352800 Hartrees.
 Integral buffers will be    262144 words long.
 Regular integral format.
 Two-electron integral symmetry is turned off.
 Do NDO integrals.
 One-electron integrals computed using PRISM.
 NBasis=    25 RedAO= F EigKep=  0.00D+00  NBF=    25
 NBsUse=    25 1.00D-04 EigRej=  0.00D+00 NBFU=    25
 Initial guess from the checkpoint file:  "C:\G09W\gxx.chk"
 B after Tr=     0.000000    0.000000    0.000000
         Rot=    1.000000   -0.000069    0.000021    0.000527 Ang=  -0.06 deg.
 Overlap will be assumed to be unity.
 Keep J ints in memory in canonical form, NReq=884130.
 Requested convergence on RMS density matrix=1.00D-08 within 128 cycles.
 Requested convergence on MAX density matrix=1.00D-06.
 Requested convergence on             energy=1.00D-06.
 No special actions if energy rises.
 SCF Done:  E(RPM6) = -0.147269462893     A.U. after   10 cycles
            NFock=  9  Conv=0.34D-08     -V/T= 0.9911
 Calling FoFJK, ICntrl=      2127 FMM=F ISym2X=0 I1Cent= 0 IOpClX= 0 NMat=1 NMatS=1 NMatT=0.
 ***** Axes restored to original set *****
 -------------------------------------------------------------------
 Center     Atomic                   Forces (Hartrees/Bohr)
 Number     Number              X              Y              Z
 -------------------------------------------------------------------
      1        6          -0.000165729   -0.000034930    0.000448404
      2        1          -0.000006138    0.000065517    0.000016170
      3        1           0.000055705   -0.000001225   -0.000011491
      4        7           0.000102129    0.000154942   -0.000198713
      5        1           0.000055478   -0.000009909   -0.000036717
      6        1          -0.000023516    0.000046188   -0.000039701
      7        6           0.000101697   -0.000408331   -0.000210000
      8        8          -0.000023162    0.000175300    0.000047963
      9        8          -0.000098421   -0.000000381   -0.000156740
     10        1           0.000001957    0.000012828    0.000140825
 -------------------------------------------------------------------
 Cartesian Forces:  Max     0.000448404 RMS     0.000144832

 GradGradGradGradGradGradGradGradGradGradGradGradGradGradGradGradGradGrad
 Berny optimization.
 Using GEDIIS/GDIIS optimizer.
 FormGI is forming the generalized inverse of G from B-inverse, IUseBI=4.
 Internal  Forces:  Max     0.000357941 RMS     0.000095115
 Search for a local minimum.
 Step number   6 out of a maximum of   46
 All quantities printed in internal units (Hartrees-Bohrs-Radians)
 Mixed Optimization -- En-DIIS/RFO-DIIS
 Swapping is turned off.
 Update second derivatives using D2CorX and points    1    2    3    4    5
                                                      6
 DE= -7.28D-06 DEPred=-6.96D-06 R= 1.05D+00
 TightC=F SS=  1.41D+00  RLast= 9.97D-03 DXNew= 8.4853D-01 2.9898D-02
 Trust test= 1.05D+00 RLast= 9.97D-03 DXMaxT set to 5.05D-01
 ITU=  1  1  1  1  1  0
     Eigenvalues ---    0.00237   0.00507   0.00634   0.01295   0.04218
     Eigenvalues ---    0.04279   0.05536   0.10642   0.13202   0.13748
     Eigenvalues ---    0.16001   0.16514   0.17938   0.20166   0.24878
     Eigenvalues ---    0.29204   0.34445   0.37230   0.44676   0.45763
     Eigenvalues ---    0.47689   0.53894   0.54191   0.90760
 En-DIIS/RFO-DIIS IScMMF=        0 using points:     6    5    4
 RFO step:  Lambda=-9.55514141D-07.
 DidBck=F Rises=F RFO-DIIS coefs:    0.98763    0.10495   -0.09258
 Iteration  1 RMS(Cart)=  0.00455660 RMS(Int)=  0.00002912
 Iteration  2 RMS(Cart)=  0.00003012 RMS(Int)=  0.00001954
 Iteration  3 RMS(Cart)=  0.00000000 RMS(Int)=  0.00001954
 Variable       Old X    -DE/DX   Delta X   Delta X   Delta X     New X
                                 (Linear)    (Quad)   (Total)
    R1        2.11748  -0.00006  -0.00019  -0.00069  -0.00088   2.11660
    R2        2.11745  -0.00006  -0.00019  -0.00066  -0.00085   2.11660
    R3        2.78575   0.00036  -0.00056   0.00122   0.00066   2.78641
    R4        2.86412  -0.00025  -0.00012  -0.00075  -0.00086   2.86325
    R5        1.92414   0.00006   0.00001   0.00041   0.00042   1.92455
    R6        1.92413   0.00005   0.00001   0.00040   0.00041   1.92454
    R7        2.27831   0.00000  -0.00014  -0.00012  -0.00027   2.27805
    R8        2.60513  -0.00004   0.00013   0.00162   0.00175   2.60688
    R9        1.87897   0.00013  -0.00002   0.00071   0.00069   1.87966
    A1        1.83401   0.00000  -0.00024  -0.00121  -0.00145   1.83256
    A2        1.90266   0.00002   0.00009   0.00045   0.00053   1.90319
    A3        1.88825  -0.00001   0.00025   0.00050   0.00076   1.88900
    A4        1.90271   0.00000   0.00008   0.00045   0.00053   1.90324
    A5        1.88820   0.00002   0.00025   0.00087   0.00112   1.88932
    A6        2.03733  -0.00003  -0.00042  -0.00110  -0.00152   2.03581
    A7        1.92969   0.00004  -0.00054   0.00039  -0.00016   1.92953
    A8        1.92968   0.00005  -0.00054   0.00043  -0.00011   1.92957
    A9        1.86136  -0.00001  -0.00023   0.00009  -0.00014   1.86122
   A10        2.25637   0.00019   0.00031   0.00191   0.00215   2.25853
   A11        1.93355  -0.00006   0.00001   0.00000  -0.00005   1.93350
   A12        2.09326  -0.00013  -0.00032  -0.00185  -0.00223   2.09102
   A13        1.96856  -0.00012  -0.00089  -0.00102  -0.00191   1.96665
    D1       -1.11675   0.00003  -0.00056   0.00012  -0.00044  -1.11719
    D2        3.10913  -0.00001   0.00041  -0.00050  -0.00010   3.10904
    D3       -3.10985   0.00002  -0.00036   0.00107   0.00071  -3.10914
    D4        1.11603  -0.00002   0.00061   0.00045   0.00106   1.11709
    D5        1.02830   0.00001  -0.00046   0.00035  -0.00011   1.02819
    D6       -1.02900  -0.00003   0.00051  -0.00027   0.00024  -1.02876
    D7       -0.98744  -0.00006  -0.00003  -0.01050  -0.01054  -0.99798
    D8        2.15085   0.00005   0.00006   0.01091   0.01098   2.16183
    D9        0.99074  -0.00005  -0.00006  -0.01122  -0.01129   0.97944
   D10       -2.15416   0.00006   0.00003   0.01018   0.01023  -2.14393
   D11       -3.13993  -0.00005  -0.00005  -0.01071  -0.01077   3.13249
   D12       -0.00164   0.00006   0.00005   0.01070   0.01075   0.00911
   D13       -3.14005  -0.00006  -0.00005  -0.00991  -0.00993   3.13320
   D14       -0.00141   0.00005   0.00004   0.00922   0.00924   0.00783
         Item               Value     Threshold  Converged?
 Maximum Force            0.000358     0.000450     YES
 RMS     Force            0.000095     0.000300     YES
 Maximum Displacement     0.011588     0.001800     NO 
 RMS     Displacement     0.004561     0.001200     NO 
 Predicted change in Energy=-3.452608D-06
 GradGradGradGradGradGradGradGradGradGradGradGradGradGradGradGradGradGrad

                          Input orientation:                          
 ---------------------------------------------------------------------
 Center     Atomic      Atomic             Coordinates (Angstroms)
 Number     Number       Type             X           Y           Z
 ---------------------------------------------------------------------
      1          6           0       -1.009584    1.295761   -0.222049
      2          1           0       -0.680496    0.225188   -0.232151
      3          1           0       -2.128887    1.254996   -0.227283
      4          7           0       -0.546212    1.953239   -1.457839
      5          1           0        0.471435    1.975178   -1.491219
      6          1           0       -0.859903    2.921713   -1.486873
      7          6           0       -0.563496    1.916493    1.086167
      8          8           0       -0.810175    1.578800    2.216796
      9          8           0        0.214975    3.032297    0.858155
     10          1           0        0.517566    3.467379    1.699889
 ---------------------------------------------------------------------
                    Distance matrix (angstroms):
                    1          2          3          4          5
     1  C    0.000000
     2  H    1.120057   0.000000
     3  H    1.120057   1.777179   0.000000
     4  N    1.474506   2.122852   2.122892   0.000000
     5  H    2.065386   2.444312   2.979575   1.018430   0.000000
     6  H    2.065406   2.979557   2.444347   1.018424   1.633526
     7  C    1.515167   2.147595   2.147831   2.544330   2.778029
     8  O    2.463299   2.801147   2.795956   3.703083   3.943225
     9  O    2.383682   3.141734   3.135389   2.666008   2.588983
    10  H    3.277492   3.959789   3.951245   3.659985   3.523062
                    6          7          8          9         10
     6  H    0.000000
     7  C    2.778283   0.000000
     8  O    3.939931   1.205492   0.000000
     9  O    2.582005   1.379501   2.238189   0.000000
    10  H    3.514345   1.987611   2.365760   0.994672   0.000000
 Stoichiometry    C2H5NO2
 Framework group  C1[X(C2H5NO2)]
 Deg. of freedom    24
 Full point group                 C1      NOp   1
 Largest Abelian subgroup         C1      NOp   1
 Largest concise Abelian subgroup C1      NOp   1
                         Standard orientation:                         
 ---------------------------------------------------------------------
 Center     Atomic      Atomic             Coordinates (Angstroms)
 Number     Number       Type             X           Y           Z
 ---------------------------------------------------------------------
      1          6           0       -0.729510   -0.800591    0.001075
      2          1           0       -0.790297   -1.483596   -0.884553
      3          1           0       -0.785199   -1.476314    0.892603
      4          7           0       -1.902209    0.093246    0.000728
      5          1           0       -1.890527    0.698100   -0.818549
      6          1           0       -1.885972    0.704764    0.814957
      7          6           0        0.631817   -0.135404   -0.005841
      8          8           0        1.728303   -0.636279    0.001525
      9          8           0        0.505384    1.238277    0.000385
     10          1           0        1.384119    1.704309    0.003764
 ---------------------------------------------------------------------
 Rotational constants (GHZ):     10.0570227      3.9837158      2.9513027
 Standard basis: VSTO-6G (5D, 7F)
 There are    25 symmetry adapted cartesian basis functions of A   symmetry.
 There are    25 symmetry adapted basis functions of A   symmetry.
    25 basis functions,   150 primitive gaussians,    25 cartesian basis functions
    15 alpha electrons       15 beta electrons
       nuclear repulsion energy       125.3726498013 Hartrees.
 Integral buffers will be    262144 words long.
 Regular integral format.
 Two-electron integral symmetry is turned off.
 Do NDO integrals.
 One-electron integrals computed using PRISM.
 NBasis=    25 RedAO= F EigKep=  0.00D+00  NBF=    25
[...]
 Thermal correction to Gibbs Free Energy=         0.041176
 Sum of electronic and zero-point Energies=             -0.076734
 Sum of electronic and thermal Energies=                -0.070929
 Sum of electronic and thermal Enthalpies=              -0.069985
 Sum of electronic and thermal Free Energies=           -0.106094
 
                     E (Thermal)             CV                S
                      KCal/Mol        Cal/Mol-Kelvin    Cal/Mol-Kelvin
 Total                   47.905             19.143             75.998
 Electronic               0.000              0.000              0.000
 Translational            0.889              2.981             38.862
 Rotational               0.889              2.981             25.411
 Vibrational             46.127             13.182             11.725
 Vibration     1          0.595              1.978              4.850
 Vibration     2          0.649              1.804              1.922
 Vibration     3          0.658              1.777              1.793
 Vibration     4          0.826              1.320              0.742
 Vibration     5          0.844              1.276              0.688
 Vibration     6          0.871              1.215              0.620
 Vibration     7          0.941              1.065              0.477
                       Q            Log10(Q)             Ln(Q)
 Total Bot       0.114871D-18        -18.939788        -43.610474
 Total V=0       0.319531D+14         13.504513         31.095290
 Vib (Bot)       0.563402D-31        -31.249181        -71.953899
 Vib (Bot)    1  0.420268D+01          0.623526          1.435722
 Vib (Bot)    2  0.879377D+00         -0.055825         -0.128542
 Vib (Bot)    3  0.811886D+00         -0.090505         -0.208395
 Vib (Bot)    4  0.360607D+00         -0.442965         -1.019965
 Vib (Bot)    5  0.340040D+00         -0.468470         -1.078693
 Vib (Bot)    6  0.314131D+00         -0.502890         -1.157946
 Vib (Bot)    7  0.259646D+00         -0.585618         -1.348436
 Vib (V=0)       0.156718D+02          1.195120          2.751865
 Vib (V=0)    1  0.473232D+01          0.675074          1.554415
 Vib (V=0)    2  0.151158D+01          0.179432          0.413159
 Vib (V=0)    3  0.145350D+01          0.162415          0.373973
 Vib (V=0)    4  0.111647D+01          0.047848          0.110174
 Vib (V=0)    5  0.110467D+01          0.043233          0.099548
 Vib (V=0)    6  0.109049D+01          0.037622          0.086627
 Vib (V=0)    7  0.106340D+01          0.026695          0.061468
 Electronic      0.100000D+01          0.000000          0.000000
 Translational   0.255461D+08          7.407325         17.055997
 Rotational      0.798119D+05          4.902068         11.287428
 ***** Axes restored to original set *****
 -------------------------------------------------------------------
 Center     Atomic                   Forces (Hartrees/Bohr)
 Number     Number              X              Y              Z
 -------------------------------------------------------------------
      1        6          -0.000035710   -0.000041941    0.000100125
      2        1           0.000034851   -0.000014917   -0.000024416
      3        1          -0.000027862    0.000026548   -0.000026877
      4        7           0.000036429    0.000053057   -0.000102925
      5        1          -0.000030594   -0.000008242    0.000003015
      6        1           0.000003331   -0.000030867    0.000003305
      7        6           0.000049607    0.000037256   -0.000065412
      8        8          -0.000025651   -0.000023729    0.000090046
      9        8          -0.000029880   -0.000033710   -0.000015643
     10        1           0.000025479    0.000036544    0.000038781
 -------------------------------------------------------------------
 Cartesian Forces:  Max     0.000102925 RMS     0.000043680
 FormGI is forming the generalized inverse of G from B-inverse, IUseBI=4.

 GradGradGradGradGradGradGradGradGradGradGradGradGradGradGradGradGradGrad
 Berny optimization.
 Internal  Forces:  Max     0.000096312 RMS     0.000031673
 Search for a local minimum.
 Step number   1 out of a maximum of    2
 All quantities printed in internal units (Hartrees-Bohrs-Radians)
 Second derivative matrix not updated -- analytic derivatives used.
 ITU=  0
     Eigenvalues ---    0.00069   0.00226   0.01565   0.03236   0.03584
     Eigenvalues ---    0.03881   0.04526   0.08197   0.11070   0.12372
     Eigenvalues ---    0.12659   0.15486   0.17584   0.18520   0.19209
     Eigenvalues ---    0.24860   0.25142   0.27027   0.28432   0.28907
     Eigenvalues ---    0.35862   0.44350   0.50463   0.93104
 Angle between quadratic step and forces=  51.80 degrees.
 Linear search not attempted -- first point.
 Iteration  1 RMS(Cart)=  0.00029414 RMS(Int)=  0.00000004
 Iteration  2 RMS(Cart)=  0.00000005 RMS(Int)=  0.00000001
 Variable       Old X    -DE/DX   Delta X   Delta X   Delta X     New X
                                 (Linear)    (Quad)   (Total)
    R1        2.11715   0.00002   0.00000   0.00006   0.00006   2.11721
    R2        2.11714   0.00003   0.00000   0.00008   0.00008   2.11721
    R3        2.78652   0.00009   0.00000   0.00029   0.00029   2.78681
    R4        2.86302   0.00005   0.00000   0.00005   0.00005   2.86307
    R5        1.92437  -0.00003   0.00000  -0.00013  -0.00013   1.92424
    R6        1.92436  -0.00003   0.00000  -0.00012  -0.00012   1.92424
    R7        2.27824   0.00010   0.00000   0.00013   0.00013   2.27837
    R8        2.60561   0.00000   0.00000  -0.00011  -0.00011   2.60550
    R9        1.87949   0.00006   0.00000   0.00024   0.00024   1.87973
    A1        1.83362   0.00003   0.00000   0.00052   0.00052   1.83414
    A2        1.90275  -0.00004   0.00000  -0.00038  -0.00038   1.90237
    A3        1.88862   0.00000   0.00000   0.00007   0.00007   1.88869
    A4        1.90277  -0.00004   0.00000  -0.00041  -0.00041   1.90237
    A5        1.88862   0.00000   0.00000   0.00007   0.00007   1.88869
    A6        2.03678   0.00005   0.00000   0.00018   0.00018   2.03696
    A7        1.92975  -0.00001   0.00000  -0.00006  -0.00006   1.92969
    A8        1.92975  -0.00001   0.00000  -0.00006  -0.00006   1.92969
    A9        1.86143   0.00001   0.00000   0.00010   0.00010   1.86153
   A10        2.25791  -0.00001   0.00000  -0.00013  -0.00013   2.25778
   A11        1.93304   0.00002   0.00000   0.00013   0.00013   1.93317
   A12        2.09224  -0.00001   0.00000   0.00000   0.00000   2.09224
   A13        1.96736   0.00003   0.00000   0.00012   0.00012   1.96748
    D1       -1.11666   0.00000   0.00000   0.00028   0.00028  -1.11638
    D2        3.10907  -0.00001   0.00000   0.00023   0.00023   3.10930
    D3       -3.10938   0.00001   0.00000   0.00008   0.00008  -3.10930
    D4        1.11635   0.00001   0.00000   0.00003   0.00003   1.11638
    D5        1.02856   0.00000   0.00000   0.00019   0.00019   1.02875
    D6       -1.02889   0.00000   0.00000   0.00014   0.00014  -1.02875
    D7       -0.98898  -0.00002   0.00000  -0.00041  -0.00041  -0.98939
    D8        2.15241  -0.00001   0.00000  -0.00021  -0.00021   2.15220
    D9        0.98914   0.00001   0.00000   0.00026   0.00026   0.98939
   D10       -2.15266   0.00002   0.00000   0.00046   0.00046  -2.15220
   D11       -3.14150   0.00000   0.00000  -0.00010  -0.00010  -3.14159
   D12       -0.00011   0.00000   0.00000   0.00011   0.00011   0.00000
   D13       -3.14150   0.00000   0.00000  -0.00010  -0.00010  -3.14159
   D14       -0.00008   0.00000   0.00000   0.00008   0.00008   0.00000
         Item               Value     Threshold  Converged?
 Maximum Force            0.000096     0.000450     YES
 RMS     Force            0.000032     0.000300     YES
 Maximum Displacement     0.000716     0.001800     YES
 RMS     Displacement     0.000294     0.001200     YES
 Predicted change in Energy=-7.482228D-08
 Optimization completed.
    -- Stationary point found.
                           ----------------------------
                           !   Optimized Parameters   !
                           ! (Angstroms and Degrees)  !
 --------------------------                            --------------------------
 ! Name  Definition              Value          Derivative Info.                !
 --------------------------------------------------------------------------------
 ! R1    R(1,2)                  1.1203         -DE/DX =    0.0                 !
 ! R2    R(1,3)                  1.1203         -DE/DX =    0.0                 !
 ! R3    R(1,4)                  1.4746         -DE/DX =    0.0001              !
 ! R4    R(1,7)                  1.515          -DE/DX =    0.0001              !
 ! R5    R(4,5)                  1.0183         -DE/DX =    0.0                 !
 ! R6    R(4,6)                  1.0183         -DE/DX =    0.0                 !
 ! R7    R(7,8)                  1.2056         -DE/DX =    0.0001              !
 ! R8    R(7,9)                  1.3788         -DE/DX =    0.0                 !
 ! R9    R(9,10)                 0.9946         -DE/DX =    0.0001              !
 ! A1    A(2,1,3)              105.0586         -DE/DX =    0.0                 !
 ! A2    A(2,1,4)              109.0194         -DE/DX =    0.0                 !
 ! A3    A(2,1,7)              108.2099         -DE/DX =    0.0                 !
 ! A4    A(3,1,4)              109.021          -DE/DX =    0.0                 !
 ! A5    A(3,1,7)              108.2099         -DE/DX =    0.0                 !
 ! A6    A(4,1,7)              116.6989         -DE/DX =    0.0001              !
 ! A7    A(1,4,5)              110.5663         -DE/DX =    0.0                 !
 ! A8    A(1,4,6)              110.5663         -DE/DX =    0.0                 !
 ! A9    A(5,4,6)              106.652          -DE/DX =    0.0                 !
 ! A10   A(1,7,8)              129.3688         -DE/DX =    0.0                 !
 ! A11   A(1,7,9)              110.7549         -DE/DX =    0.0                 !
 ! A12   A(8,7,9)              119.8763         -DE/DX =    0.0                 !
 ! A13   A(7,9,10)             112.7216         -DE/DX =    0.0                 !
 ! D1    D(2,1,4,5)            -63.9799         -DE/DX =    0.0                 !
 ! D2    D(2,1,4,6)            178.1365         -DE/DX =    0.0                 !
 ! D3    D(3,1,4,5)           -178.1542         -DE/DX =    0.0                 !
 ! D4    D(3,1,4,6)             63.9622         -DE/DX =    0.0                 !
 ! D5    D(7,1,4,5)             58.9323         -DE/DX =    0.0                 !
 ! D6    D(7,1,4,6)            -58.9513         -DE/DX =    0.0                 !
 ! D7    D(2,1,7,8)            -56.6644         -DE/DX =    0.0                 !
 ! D8    D(2,1,7,9)            123.3241         -DE/DX =    0.0                 !
 ! D9    D(3,1,7,8)             56.6733         -DE/DX =    0.0                 !
 ! D10   D(3,1,7,9)           -123.3382         -DE/DX =    0.0                 !
 ! D11   D(4,1,7,8)           -179.9945         -DE/DX =    0.0                 !
 ! D12   D(4,1,7,9)             -0.006          -DE/DX =    0.0                 !
 ! D13   D(1,7,9,10)          -179.9945         -DE/DX =    0.0                 !
 ! D14   D(8,7,9,10)            -0.0048         -DE/DX =    0.0                 !
 --------------------------------------------------------------------------------
 GradGradGradGradGradGradGradGradGradGradGradGradGradGradGradGradGradGrad

 1|1|UNPC-DESKTOP-KC5UJLK|Freq|RPM6|ZDO|C2H5N1O2|23122|13-Mar-2022|0||#
 N Geom=AllCheck Guess=TCheck SCRF=Check GenChk RPM6/ZDO Freq||Energy C
 alculation(GC)||0,1|C,-1.0098347584,1.2966622797,-0.2217627974|H,-0.67
 70244984,0.2269149287,-0.2293577493|H,-2.1293105223,1.2532750937,-0.22
 92257294|N,-0.5460775119,1.9529920336,-1.4580863439|H,0.471454259,1.97
 7751001,-1.4899211914|H,-0.862651852,2.9203374206,-1.4899629559|C,-0.5
 689157746,1.9203932087,1.0866360173|O,-0.8108105773,1.5778428991,2.216
 9481256|O,0.2160136354,3.0308171353,0.8585569268|H,0.5223808205,3.4640
 581497,1.6997690776||Version=IA32W-G09RevD.01|State=1-A|HF=-0.1472704|
 RMSD=5.846e-010|RMSF=4.368e-005|ZeroPoint=0.0705361|Thermal=0.0763414|
 Dipole=0.2924693,0.4141332,-0.1752758|DipoleDeriv=-0.4979728,0.036811,
 -0.1405477,0.0367833,-0.4718752,-0.1990169,0.0693869,0.0981318,0.31008
 72,0.2007478,-0.035511,-0.0060378,-0.0250593,0.3044133,0.0416996,-0.01
 18729,0.0132685,0.0755336,0.311908,0.0142976,0.041287,0.0038703,0.1932
 336,0.0082507,0.0164398,-0.0067486,0.0755448,-0.4332521,0.0111975,0.00
 52379,0.0111913,-0.4253006,0.0074077,-0.0819136,-0.1158746,-0.8203977,
 0.2450863,0.0258056,0.0018236,-0.0731433,0.1837763,0.1173994,-0.108686
 5,0.0606839,0.2815708,0.2055099,-0.0871649,0.1100378,0.0117902,0.22332
 18,0.0409338,0.0935166,-0.0821887,0.2815547,1.0674939,0.6922103,-0.225
 9498,0.6921934,1.5575864,-0.3199249,-0.257978,-0.3651288,1.3916123,-0.
 5833033,-0.1564186,0.0662037,-0.1564887,-0.694158,0.0939212,0.2767181,
 0.3916076,-1.2584023,-0.9010754,-0.4899269,0.101862,-0.4898143,-1.2478
 122,0.1441174,-0.1726274,-0.2441941,-0.6702468,0.3848562,-0.0113049,0.
 0460838,-0.0113272,0.3768098,0.0652134,0.177015,0.2504403,0.3331419|Po
 lar=20.2793599,8.2493086,26.1201738,-3.2540117,-4.6097036,39.7199438|H
 yperPolar=-2.2416964,-11.5815799,-19.3697412,-18.9800654,5.6795442,15.
 0045428,16.2956162,23.7318401,33.5961334,150.2390532|PG=C01 [X(C2H5N1O
 2)]|NImag=0||0.42192743,0.02294839,0.43816501,-0.03367909,-0.04767944,
 0.45928677,-0.04855199,0.05540393,0.00437924,0.05218091,0.04864838,-0.
 18458442,-0.00016544,-0.05785087,0.24124588,0.00332930,-0.00548227,-0.
 02910397,-0.00281831,-0.00022875,0.04998420,-0.20217302,-0.00575362,-0
 .00159808,-0.01371005,0.00925363,0.00002435,0.25658957,0.00100392,-0.0
 3096822,0.00407264,0.01891909,-0.00373300,0.00062317,0.01453643,0.0368
 4173,-0.00625963,0.00130905,-0.02910484,0.00058265,0.00022916,0.003618
 68,0.00070317,-0.00273566,0.04998350,-0.09065671,-0.01920843,0.0696871
 8,0.00602004,0.00144893,-0.00416380,-0.02234294,-0.01795943,0.02932871
 ,0.41564822,-0.01920984,-0.10426580,0.09863095,-0.00791141,-0.02819468
 ,0.02963756,-0.00859779,0.00017159,0.00597090,-0.01849411,0.40253159,0
 .05138980,0.07272463,-0.18539443,-0.00026503,0.01743023,-0.01000343,0.
 01651824,0.00557147,-0.01000558,-0.08954712,-0.12675049,0.33947804,-0.
 01608642,-0.00798650,0.01142196,-0.00018370,-0.00095125,0.00055327,-0.
 00029939,-0.00046642,0.00070373,-0.24897438,0.00610147,0.01165656,0.28
 255848,-0.01707761,-0.00213203,-0.00014775,-0.00147144,-0.00025227,0.0
 0130156,-0.00067345,-0.00015453,0.00216914,-0.01785027,-0.04579292,0.0
 1566870,-0.00197090,0.04889161,0.04057172,0.00475840,-0.01554508,0.000
 24941,0.00050461,0.00081681,0.00151223,0.00332958,-0.00340671,-0.02327
 785,0.01104792,-0.03240223,-0.02313881,-0.02000858,0.04605049,0.004202
 67,-0.00988877,-0.00395200,0.00018812,-0.00050120,0.00180989,0.0005182
 3,-0.00122289,0.00104174,-0.06476858,0.04743831,0.01087106,-0.01689160
 ,0.03846216,0.00161584,0.07620902,-0.00079658,-0.02242008,0.01071739,-
 0.00029356,-0.00064233,0.00138825,-0.00070259,-0.00095374,0.00095620,0
 .07138817,-0.23000111,0.01622936,0.00498058,-0.00149511,-0.00150539,-0
 .07510438,0.25524201,-0.00906792,0.03983110,-0.01554565,0.00263330,0.0
 0253706,-0.00340628,0.00039228,0.00040348,0.00081707,0.01818614,-0.018
 24220,-0.03240184,-0.00195962,0.00102158,0.00299671,-0.01112721,-0.028
 50184,0.04604923,-0.07745475,-0.00426112,-0.03427438,0.00703674,0.0007
 2686,0.00419537,-0.01903446,-0.01490671,-0.02795444,0.00271112,-0.0006
 2536,0.00238090,0.00132432,0.00105512,0.00360609,0.00121853,0.00093259
 ,0.00140015,0.28846332,-0.00426326,-0.08046448,-0.04848067,-0.00567771
 ,-0.02405017,-0.02817045,-0.00850202,0.00201540,-0.00544756,-0.0006233
 5,0.00226769,0.00337121,0.00096999,0.00192344,0.00276334,0.00101831,0.
 00202755,0.00432138,0.17129809,0.40976591,-0.02959258,-0.04186225,-0.1
 3210676,-0.00364338,-0.02297405,-0.00879949,-0.02043868,-0.01110097,-0
 .00879454,0.00325716,0.00461420,-0.05652658,0.00150874,-0.00121119,-0.
 00129025,-0.00164644,0.00101677,-0.00128998,-0.06487181,-0.09197111,0.
 95514300,0.01509293,-0.00338209,-0.00317720,-0.00119698,-0.00065138,-0
 .00103310,-0.00014527,0.00036633,0.00172276,0.00089500,0.00040051,-0.0
 0151878,-0.00034504,-0.00020684,-0.00050901,-0.00021512,-0.00021444,-0
 .00018538,-0.07718811,-0.03100638,0.13060184,0.07560992,-0.00338314,0.
 01269761,-0.00448569,-0.00000561,-0.00024712,0.00146212,-0.00027974,-0
 .00129777,-0.00048549,0.00040054,0.00117919,-0.00214508,-0.00026038,-0
 .00036452,-0.00037767,-0.00016111,-0.00049394,-0.00060638,-0.03099966,
 -0.09920951,0.18495034,0.07495759,0.12876808,-0.00097668,-0.00136894,-
 0.05281521,-0.00014245,0.00262893,-0.00129096,0.00252523,0.00074316,-0
 .00129132,-0.00180092,-0.00254750,-0.00833749,-0.00072998,0.00049149,0
 .00188628,0.00070719,-0.00052408,0.00188580,0.11393471,0.16137187,-0.6
 8385756,-0.16339694,-0.23137053,0.77836810,-0.00772698,-0.02347683,-0.
 00920288,-0.00143560,0.00036946,-0.00109755,0.00047779,-0.00011023,-0.
 00002624,0.00150413,0.00052338,-0.00254461,-0.00129619,-0.00004465,-0.
 00029373,-0.00050875,-0.00015166,-0.00008667,-0.11127661,-0.09819049,0
 .00983747,-0.01052516,-0.04265888,0.04847639,0.16456090,-0.02347449,-0
 .02434281,-0.01302131,-0.00078710,0.00056950,-0.00041556,0.00104638,-0
 .00134299,-0.00117338,0.00052318,0.00187520,-0.00359804,-0.00043027,-0
 .00057921,-0.00019706,0.00023348,-0.00136497,-0.00034252,-0.09819439,-
 0.18077185,0.01392359,-0.04265382,-0.04074115,0.06858874,0.19231348,0.
 30067814,-0.01811604,-0.02562879,0.00246655,-0.00130402,0.00028613,-0.
 00217639,0.00070458,-0.00113376,-0.00217707,-0.00126268,-0.00178572,-0
 .00486641,-0.00013303,0.00076501,0.00097948,0.00076620,0.00012963,0.00
 098053,0.01224480,0.01732772,-0.08023537,0.03550966,0.05024616,-0.0236
 2348,0.00303274,0.00424777,0.26502392,0.00142651,-0.00439522,0.0003948
 6,-0.00034749,-0.00049259,-0.00079946,0.00011951,-0.00016008,0.0001576
 7,-0.00003588,0.00037497,0.00105907,0.00019394,-0.00022213,-0.00033591
 ,0.00004756,-0.00003809,-0.00018506,-0.01579937,-0.02502305,-0.0250122
 9,-0.00198236,0.00239049,0.00140361,-0.03377380,-0.02857644,-0.0314422
 2,0.05015141,-0.00439601,-0.00168528,0.00055876,-0.00032529,-0.0001114
 3,-0.00011551,-0.00032728,-0.00057848,-0.00079234,0.00037489,0.0002293
 4,0.00149814,0.00001372,-0.00004440,-0.00031513,-0.00027390,0.00010175
 ,-0.00042165,-0.02502528,-0.03350313,-0.03538537,0.00239061,-0.0002910
 3,0.00198713,-0.02857358,-0.05398016,-0.04445412,0.05614202,0.08986276
 ,0.00240097,0.00339832,-0.00213752,0.00032862,-0.00024795,0.00036085,-
 0.00034339,0.00022689,0.00036082,-0.00040679,-0.00057557,0.00045960,0.
 00011722,-0.00004995,-0.00008535,-0.00008628,0.00009378,-0.00008544,-0
 .01066101,-0.01508518,0.01775747,0.00198607,0.00281211,-0.01092406,-0.
 04809509,-0.06801244,-0.15637143,0.05475969,0.07744002,0.15066485||0.0
 0003571,0.00004194,-0.00010013,-0.00003485,0.00001492,0.00002442,0.000
 02786,-0.00002655,0.00002688,-0.00003643,-0.00005306,0.00010292,0.0000
 3059,0.00000824,-0.00000301,-0.00000333,0.00003087,-0.00000331,-0.0000
 4961,-0.00003726,0.00006541,0.00002565,0.00002373,-0.00009005,0.000029
 88,0.00003371,0.00001564,-0.00002548,-0.00003654,-0.00003878|||@


 IF AT FIRST YOU DON'T SUCCEED, TRY LOOKING IN 
 THE WASTEBASKET FOR THE DIRECTIONS.
 Job cpu time:       0 days  0 hours  0 minutes  5.0 seconds.
 File lengths (MBytes):  RWF=      5 Int=      0 D2E=      0 Chk=      1 Scr=      1
 Normal termination of Gaussian 09 at Sun Mar 13 11:35:17 2022.
