 Entering Link 1 = C:\G09W\l1.exe PID=      3060.
  
 Copyright (c) 1988,1990,1992,1993,1995,1998,2003,2009,2013,
            Gaussian, Inc.  All Rights Reserved.
  
 This is part of the Gaussian(R) 09 program.  It is based on
 the Gaussian(R) 03 system (copyright 2003, Gaussian, Inc.),
 the Gaussian(R) 98 system (copyright 1998, Gaussian, Inc.),
 the Gaussian(R) 94 system (copyright 1995, Gaussian, Inc.),
 the Gaussian 92(TM) system (copyright 1992, Gaussian, Inc.),
 the Gaussian 90(TM) system (copyright 1990, Gaussian, Inc.),
 the Gaussian 88(TM) system (copyright 1988, Gaussian, Inc.),
 the Gaussian 86(TM) system (copyright 1986, Carnegie Mellon
 University), and the Gaussian 82(TM) system (copyright 1983,
 Carnegie Mellon University). Gaussian is a federally registered
 trademark of Gaussian, Inc.
  
 This software contains proprietary and confidential information,
 including trade secrets, belonging to Gaussian, Inc.
  
 This software is provided under written license and may be
 used, copied, transmitted, or stored only in accord with that
 written license.
  
 The following legend is applicable only to US Government
 contracts under FAR:
  
                    RESTRICTED RIGHTS LEGEND
  
 Use, reproduction and disclosure by the US Government is
 subject to restrictions as set forth in subparagraphs (a)
 and (c) of the Commercial Computer Software - Restricted
 Rights clause in FAR 52.227-19.
  
 Gaussian, Inc.
 340 Quinnipiac St., Bldg. 40, Wallingford CT 06492
  
  
 ---------------------------------------------------------------
 Warning -- This program may not be used in any manner that
 competes with the business of Gaussian, Inc. or will provide
 assistance to any competitor of Gaussian, Inc.  The licensee
 of this program is prohibited from giving any competitor of
 Gaussian, Inc. access to this program.  By using this program,
 the user acknowledges that Gaussian, Inc. is engaged in the
 business of creating and licensing software in the field of
 computational chemistry and represents and warrants to the
 licensee that it is not a competitor of Gaussian, Inc. and that
 it will not use this program in any manner prohibited above.
 ---------------------------------------------------------------
  

 Cite this work as:
 Gaussian 09, Revision D.01,
 M. J. Frisch, G. W. Trucks, H. B. Schlegel, G. E. Scuseria, 
 M. A. Robb, J. R. Cheeseman, G. Scalmani, V. Barone, B. Mennucci, 
 G. A. Petersson, H. Nakatsuji, M. Caricato, X. Li, H. P. Hratchian, 
 A. F. Izmaylov, J. Bloino, G. Zheng, J. L. Sonnenberg, M. Hada, 
 M. Ehara, K. Toyota, R. Fukuda, J. Hasegawa, M. Ishida, T. Nakajima, 
 Y. Honda, O. Kitao, H. Nakai, T. Vreven, J. A. Montgomery, Jr., 
 J. E. Peralta, F. Ogliaro, M. Bearpark, J. J. Heyd, E. Brothers, 
 K. N. Kudin, V. N. Staroverov, T. Keith, R. Kobayashi, J. Normand, 
 K. Raghavachari, A. Rendell, J. C. Burant, S. S. Iyengar, J. Tomasi, 
 M. Cossi, N. Rega, J. M. Millam, M. Klene, J. E. Knox, J. B. Cross, 
 V. Bakken, C. Adamo, J. Jaramillo, R. Gomperts, R. E. Stratmann, 
 O. Yazyev, A. J. Austin, R. Cammi, C. Pomelli, J. W. Ochterski, 
 R. L. Martin, K. Morokuma, V. G. Zakrzewski, G. A. Voth, 
 P. Salvador, J. J. Dannenberg, S. Dapprich, A. D. Daniels, 
 O. Farkas, J. B. Foresman, J. V. Ortiz, J. Cioslowski, 
 and D. J. Fox, Gaussian, Inc., Wallingford CT, 2013.
 
 ******************************************
 Gaussian 09:  IA32W-G09RevD.01 24-Apr-2013
                05-Feb-2022 
 ******************************************
 %chk=D:\mindmap\gaussian\calculate\ch3n2_gongzhen _dihedral_160\energy.chk
 %nprocshared=4
 Will use up to    4 processors via shared memory.
 %mem=1GB
 -------------------------------------------------------------
 # apfd/6-311+g(2d,p) pop=full geom=connectivity int=ultrafine
 -------------------------------------------------------------
 1/38=1,57=2/1;
 2/12=2,17=6,18=5,40=1/2;
 3/5=4,6=6,7=112,11=2,16=1,25=1,30=1,74=-44,75=-5/1,2,3;
 4//1;
 5/5=2,38=5/2;
 6/7=3,28=1/1;
 99/5=1,9=1/99;
 ----------------------
 Energy Calculation(GC)
 ----------------------
 Symbolic Z-matrix:
 Charge =  0 Multiplicity = 1
 N                    -1.7531    0.20118  -1.10635 
 N                    -2.32428   0.41288  -2.15764 
 C                    -1.152    -0.02162   0. 
 H                    -0.08406   0.04564   0.00333 
 H                    -1.6891    0.01309   0.92484 
 
                          Input orientation:                          
 ---------------------------------------------------------------------
 Center     Atomic      Atomic             Coordinates (Angstroms)
 Number     Number       Type             X           Y           Z
 ---------------------------------------------------------------------
      1          7           0       -1.753097    0.201177   -1.106354
      2          7           0       -2.324276    0.412877   -2.157636
      3          6           0       -1.151997   -0.021619    0.000000
      4          1           0       -0.084063    0.045645    0.003333
      5          1           0       -1.689104    0.013093    0.924840
 ---------------------------------------------------------------------
                    Distance matrix (angstroms):
                    1          2          3          4          5
     1  N    0.000000
     2  N    1.215013   0.000000
     3  C    1.278663   2.493676   0.000000
     4  H    2.010292   3.134199   1.070055   0.000000
     5  H    2.040887   3.172527   1.070055   1.851052   0.000000
 Stoichiometry    CH2N2
 Framework group  C1[X(CH2N2)]
 Deg. of freedom     9
 Full point group                 C1      NOp   1
 Largest Abelian subgroup         C1      NOp   1
 Largest concise Abelian subgroup C1      NOp   1
                         Standard orientation:                         
 ---------------------------------------------------------------------
 Center     Atomic      Atomic             Coordinates (Angstroms)
 Number     Number       Type             X           Y           Z
 ---------------------------------------------------------------------
      1          7           0       -0.125630   -0.001252   -0.010721
      2          7           0       -1.340440   -0.001181    0.011438
      3          6           0        1.152821   -0.001327   -0.034047
      4          1           0        1.648571    0.937702    0.098141
      5          1           0        1.696992   -0.912714    0.101125
 ---------------------------------------------------------------------
 Rotational constants (GHZ):    287.2054823     10.8115697     10.4339128
 Standard basis: 6-311+G(2d,p) (5D, 7F)
 There are    99 symmetry adapted cartesian basis functions of A   symmetry.
 There are    93 symmetry adapted basis functions of A   symmetry.
    93 basis functions,   142 primitive gaussians,    99 cartesian basis functions
    11 alpha electrons       11 beta electrons
       nuclear repulsion energy        59.8629884712 Hartrees.
 NAtoms=    5 NActive=    5 NUniq=    5 SFac= 1.00D+00 NAtFMM=   60 NAOKFM=F Big=F
 Integral buffers will be    262144 words long.
 Raffenetti 2 integral format.
 Two-electron integral symmetry is turned on.
 R6APFD:  NTU= -4 IXU= 1 FactS= 1.050
 Nuclear repulsion after empirical dispersion term =       59.8627525295 Hartrees.
 One-electron integrals computed using PRISM.
 NBasis=    93 RedAO= T EigKep=  8.97D-05  NBF=    93
 NBsUse=    93 1.00D-06 EigRej= -1.00D+00 NBFU=    93
 ExpMin= 4.38D-02 ExpMax= 6.29D+03 ExpMxC= 9.49D+02 IAcc=3 IRadAn=         5 AccDes= 0.00D+00
 Harris functional with IExCor= 3731 and IRadAn=       5 diagonalized for initial guess.
 HarFok:  IExCor= 3731 AccDes= 0.00D+00 IRadAn=         5 IDoV= 1 UseB2=F ITyADJ=14
 ICtDFT=  3500011 ScaDFX=  1.000000  1.000000  1.000000  1.000000
 FoFCou: FMM=F IPFlag=           0 FMFlag=      100000 FMFlg1=           0
         NFxFlg=           0 DoJE=T BraDBF=F KetDBF=T FulRan=T
         wScrn=  0.000000 ICntrl=     500 IOpCl=  0 I1Cent=   200000004 NGrid=           0
         NMat0=    1 NMatS0=      1 NMatT0=    0 NMatD0=    1 NMtDS0=    0 NMtDT0=    0
 Petite list used in FoFCou.
 Keep R1 ints in memory in canonical form, NReq=10520328.
 Requested convergence on RMS density matrix=1.00D-08 within 128 cycles.
 Requested convergence on MAX density matrix=1.00D-06.
 Requested convergence on             energy=1.00D-06.
 No special actions if energy rises.
 SCF Done:  E(RAPFD) =  -148.645386455     A.U. after   12 cycles
            NFock= 12  Conv=0.48D-08     -V/T= 2.0054

 **********************************************************************

            Population analysis using the SCF density.

 **********************************************************************

 Orbital symmetries:
       Occupied  (A) (A) (A) (A) (A) (A) (A) (A) (A) (A) (A)
       Virtual   (A) (A) (A) (A) (A) (A) (A) (A) (A) (A) (A) (A)
                 (A) (A) (A) (A) (A) (A) (A) (A) (A) (A) (A) (A)
                 (A) (A) (A) (A) (A) (A) (A) (A) (A) (A) (A) (A)
                 (A) (A) (A) (A) (A) (A) (A) (A) (A) (A) (A) (A)
                 (A) (A) (A) (A) (A) (A) (A) (A) (A) (A) (A) (A)
                 (A) (A) (A) (A) (A) (A) (A) (A) (A) (A) (A) (A)
                 (A) (A) (A) (A) (A) (A) (A) (A) (A) (A)
 The electronic state is 1-A.
 Alpha  occ. eigenvalues --  -14.49844 -14.43189 -10.24317  -1.09038  -0.87033
 Alpha  occ. eigenvalues --   -0.58939  -0.52885  -0.47466  -0.46287  -0.39484
 Alpha  occ. eigenvalues --   -0.24436
 Alpha virt. eigenvalues --   -0.07329  -0.01056   0.01151   0.05067   0.05117
 Alpha virt. eigenvalues --    0.07974   0.10821   0.13835   0.14558   0.15034
 Alpha virt. eigenvalues --    0.18849   0.21481   0.22048   0.22528   0.22794
 Alpha virt. eigenvalues --    0.25640   0.29862   0.38309   0.49826   0.51031
 Alpha virt. eigenvalues --    0.55261   0.56944   0.64418   0.67012   0.75430
 Alpha virt. eigenvalues --    0.76413   0.77126   0.78010   0.80056   0.85996
 Alpha virt. eigenvalues --    0.86674   0.86779   0.87489   0.96296   0.98802
 Alpha virt. eigenvalues --    1.00634   1.14363   1.24534   1.25410   1.26973
 Alpha virt. eigenvalues --    1.29372   1.35526   1.39643   1.67817   1.68978
 Alpha virt. eigenvalues --    1.80190   1.87570   1.94208   2.10610   2.12150
 Alpha virt. eigenvalues --    2.32304   2.34602   2.56379   2.64159   2.80976
 Alpha virt. eigenvalues --    2.86545   3.17942   3.29069   3.38779   3.44136
 Alpha virt. eigenvalues --    3.54681   3.81297   3.85544   3.96732   3.97225
 Alpha virt. eigenvalues --    3.97863   4.11684   4.41702   4.66010   4.66175
 Alpha virt. eigenvalues --    4.68849   4.79592   4.80716   4.85760   4.91783
 Alpha virt. eigenvalues --    5.13140   5.22337   5.27012   5.87741  24.23470
 Alpha virt. eigenvalues --   35.41611  35.81654
     Molecular Orbital Coefficients:
                           1         2         3         4         5
                           O         O         O         O         O
     Eigenvalues --   -14.49844 -14.43189 -10.24317  -1.09038  -0.87033
   1 1   N  1S          0.55761  -0.00286  -0.00010  -0.10146  -0.03504
   2        2S          0.46574  -0.00233  -0.00007  -0.16069  -0.05619
   3        2PX        -0.00002  -0.00045   0.00053  -0.04929   0.17701
   4        2PY         0.00000   0.00000   0.00001   0.00007   0.00021
   5        2PZ        -0.00006   0.00001  -0.00001   0.00084  -0.00234
   6        3S          0.01436   0.00179   0.00296   0.44578   0.15955
   7        3PX        -0.00041   0.00121  -0.00148  -0.06930   0.25523
   8        3PY        -0.00001   0.00000  -0.00004   0.00008   0.00027
   9        3PZ         0.00004  -0.00002   0.00003   0.00094  -0.00347
  10        4S          0.00475  -0.01062  -0.02054   0.22600   0.12888
  11        4PX        -0.00568  -0.00960  -0.01022   0.01001   0.05534
  12        4PY        -0.00003   0.00001  -0.00012   0.00010   0.00021
  13        4PZ         0.00005   0.00015   0.00018   0.00003  -0.00051
  14        5S          0.01671   0.00059   0.01186  -0.14215  -0.13827
  15        5PX        -0.00741  -0.00353  -0.00122   0.04044   0.01741
  16        5PY        -0.00004  -0.00002  -0.00003   0.00022   0.00026
  17        5PZ         0.00013   0.00006  -0.00001  -0.00065  -0.00047
  18        6D 0       -0.00034  -0.00014  -0.00029  -0.00782  -0.00091
  19        6D+1       -0.00001  -0.00001  -0.00001  -0.00045  -0.00003
  20        6D-1        0.00000   0.00000   0.00000   0.00000   0.00000
  21        6D+2        0.00043   0.00022   0.00033   0.01310   0.00146
  22        6D-2        0.00000   0.00000   0.00001   0.00001   0.00003
  23        7D 0       -0.00125   0.00266   0.00399  -0.01059  -0.00068
  24        7D+1       -0.00012   0.00016   0.00018  -0.00055  -0.00010
  25        7D-1        0.00000   0.00000   0.00001   0.00001   0.00002
  26        7D+2        0.00271  -0.00452  -0.00592   0.01300   0.00040
  27        7D-2        0.00000   0.00001  -0.00011  -0.00009  -0.00002
  28 2   N  1S          0.00280   0.55765   0.00001  -0.07216   0.06040
  29        2S          0.00251   0.46589  -0.00025  -0.11368   0.09608
  30        2PX         0.00063   0.00169  -0.00012   0.08365  -0.04893
  31        2PY         0.00000   0.00000   0.00001   0.00001   0.00006
  32        2PZ        -0.00001  -0.00004   0.00000  -0.00153   0.00098
  33        3S         -0.00031   0.01542   0.00308   0.31119  -0.27504
  34        3PX        -0.00276   0.00245   0.00245   0.12017  -0.07110
  35        3PY         0.00000   0.00000  -0.00003   0.00000   0.00009
  36        3PZ         0.00004  -0.00004  -0.00005  -0.00224   0.00142
  37        4S         -0.01040  -0.01085  -0.00108   0.18628  -0.20106
  38        4PX        -0.00540  -0.00303  -0.00052   0.04890  -0.03636
  39        4PY         0.00001   0.00000   0.00002  -0.00005  -0.00001
  40        4PZ         0.00009   0.00006  -0.00003  -0.00090   0.00061
  41        5S         -0.01550   0.00045  -0.00683   0.08728   0.10683
  42        5PX        -0.00302   0.00118  -0.00196   0.01534   0.03584
  43        5PY         0.00001   0.00001   0.00000  -0.00008  -0.00009
  44        5PZ         0.00008  -0.00001   0.00010  -0.00044  -0.00074
  45        6D 0        0.00006  -0.00036  -0.00010  -0.00692   0.00405
  46        6D+1        0.00000  -0.00002  -0.00001  -0.00044   0.00028
  47        6D-1        0.00000   0.00000   0.00000   0.00000   0.00000
  48        6D+2       -0.00009   0.00057   0.00020   0.01084  -0.00610
  49        6D-2        0.00000   0.00000   0.00000   0.00001   0.00001
  50        7D 0        0.00111   0.00004  -0.00022  -0.01021   0.00396
  51        7D+1        0.00006   0.00001  -0.00003  -0.00066   0.00024
  52        7D-1        0.00000   0.00000   0.00000   0.00000   0.00000
  53        7D+2       -0.00205   0.00000   0.00015   0.01483  -0.00447
  54        7D-2        0.00000   0.00000  -0.00002  -0.00003  -0.00001
  55 3   C  1S         -0.00002   0.00006   0.56321  -0.02963  -0.08178
  56        2S          0.00018  -0.00029   0.46289  -0.04545  -0.12714
  57        2PX        -0.00044   0.00018  -0.00080  -0.03839  -0.07373
  58        2PY         0.00000   0.00000  -0.00003   0.00015   0.00069
  59        2PZ        -0.00003   0.00000   0.00009   0.00144   0.00538
  60        3S         -0.00095   0.00352   0.02234   0.10749   0.33224
  61        3PX         0.00323  -0.00407  -0.00488  -0.04954  -0.10345
  62        3PY         0.00000   0.00000   0.00009   0.00021   0.00077
  63        3PZ         0.00016   0.00005   0.00073   0.00166   0.00730
  64        4S          0.00339   0.01197   0.00976   0.01834   0.16844
  65        4PX         0.00023  -0.00457  -0.00464  -0.00535  -0.02741
  66        4PY         0.00011   0.00003   0.00017  -0.00040  -0.00022
  67        4PZ         0.00014   0.00012   0.00035   0.00001   0.00248
  68        5S         -0.00155  -0.00102  -0.00449   0.03469   0.02113
  69        5PX         0.00103   0.00133   0.00130  -0.01740  -0.00278
  70        5PY         0.00002   0.00001   0.00005  -0.00006  -0.00011
  71        5PZ        -0.00011  -0.00006  -0.00019   0.00079   0.00068
  72        6D 0        0.00024  -0.00012  -0.00118  -0.00490  -0.01039
  73        6D+1        0.00004  -0.00002   0.00007  -0.00024  -0.00025
  74        6D-1        0.00000   0.00000   0.00000   0.00001   0.00002
  75        6D+2       -0.00057   0.00036   0.00066   0.00672   0.01146
  76        6D-2       -0.00001   0.00000  -0.00002   0.00001  -0.00008
  77        7D 0        0.00004  -0.00057  -0.00235  -0.00295  -0.00701
  78        7D+1        0.00011  -0.00004   0.00015  -0.00083  -0.00111
  79        7D-1        0.00000   0.00000   0.00001   0.00000  -0.00001
  80        7D+2       -0.00210   0.00065  -0.00003   0.00942   0.00910
  81        7D-2       -0.00002   0.00003  -0.00021  -0.00020  -0.00029
  82 4   H  1S         -0.00009   0.00002   0.00023   0.00946   0.04063
  83        2S         -0.00195  -0.00027  -0.00485   0.01431   0.04788
  84        3S          0.00089   0.00034   0.00185  -0.00499  -0.00443
  85        4PX         0.00043   0.00001   0.00120  -0.00224  -0.00572
  86        4PY         0.00034  -0.00018   0.00161  -0.00180  -0.00748
  87        4PZ         0.00009  -0.00001   0.00029  -0.00027  -0.00072
  88 5   H  1S         -0.00009   0.00003   0.00024   0.00892   0.03925
  89        2S         -0.00188  -0.00021  -0.00491   0.01330   0.04591
  90        3S          0.00097   0.00036   0.00210  -0.00517  -0.00482
  91        4PX         0.00050   0.00002   0.00124  -0.00246  -0.00587
  92        4PY        -0.00031   0.00020  -0.00157   0.00154   0.00692
  93        4PZ         0.00009  -0.00002   0.00030  -0.00022  -0.00067
                           6         7         8         9        10
                           O         O         O         O         O
     Eigenvalues --    -0.58939  -0.52885  -0.47466  -0.46287  -0.39484
   1 1   N  1S          0.04430   0.00083  -0.00626   0.02593  -0.00051
   2        2S          0.07224   0.00135  -0.01025   0.04247  -0.00084
   3        2PX        -0.06745  -0.00053  -0.01000   0.13228   0.00271
   4        2PY         0.00033   0.16282  -0.00007  -0.00268   0.15602
   5        2PZ         0.01249   0.00030   0.22186   0.02858   0.00018
   6        3S         -0.21874  -0.00420   0.03169  -0.13264   0.00279
   7        3PX        -0.09932  -0.00100  -0.01491   0.19911   0.00425
   8        3PY         0.00059   0.25171  -0.00007  -0.00421   0.24212
   9        3PZ         0.01972   0.00049   0.34594   0.04459   0.00028
  10        4S         -0.20734  -0.00538   0.03900  -0.16517   0.00145
  11        4PX        -0.01540  -0.00171  -0.00566   0.13732   0.00122
  12        4PY         0.00053   0.15529   0.00005  -0.00298   0.17961
  13        4PZ         0.01129   0.00041   0.22562   0.02878   0.00016
  14        5S          0.19194   0.01345  -0.05677   0.11873   0.00423
  15        5PX        -0.09335  -0.00887   0.03946  -0.03939  -0.00381
  16        5PY         0.00001  -0.00188  -0.00012  -0.00038   0.04096
  17        5PZ        -0.00158   0.00003  -0.00369   0.00195   0.00003
  18        6D 0        0.00109  -0.00001  -0.00017   0.00076   0.00001
  19        6D+1        0.00043   0.00000  -0.00286  -0.00059  -0.00002
  20        6D-1        0.00000  -0.00011   0.00001   0.00000   0.00003
  21        6D+2       -0.00194  -0.00004   0.00022  -0.00123  -0.00003
  22        6D-2        0.00001   0.00199  -0.00001   0.00006  -0.01078
  23        7D 0       -0.00213  -0.00001  -0.00005   0.00100   0.00031
  24        7D+1        0.00241   0.00009  -0.00221  -0.00168  -0.00006
  25        7D-1       -0.00002   0.00081   0.00002   0.00000   0.00024
  26        7D+2        0.00303  -0.00005  -0.00075   0.00152  -0.00001
  27        7D-2        0.00017   0.00154   0.00012   0.00020  -0.04191
  28 2   N  1S         -0.03551  -0.00080   0.01199  -0.07394  -0.00035
  29        2S         -0.05717  -0.00129   0.01940  -0.11967  -0.00056
  30        2PX        -0.01903  -0.00102   0.03074  -0.19845  -0.00222
  31        2PY         0.00010   0.07847  -0.00005  -0.00169   0.16204
  32        2PZ         0.00451   0.00016   0.13961   0.02454   0.00031
  33        3S          0.16731   0.00379  -0.05616   0.34480   0.00149
  34        3PX        -0.02560  -0.00144   0.04393  -0.28152  -0.00314
  35        3PY         0.00019   0.12335  -0.00004  -0.00264   0.24640
  36        3PZ         0.00741   0.00027   0.21584   0.03726   0.00046
  37        4S          0.18813   0.00364  -0.07508   0.50779   0.00298
  38        4PX        -0.00384  -0.00118   0.02403  -0.13640  -0.00178
  39        4PY         0.00007   0.07850  -0.00006  -0.00175   0.18666
  40        4PZ         0.00412   0.00015   0.14719   0.02484   0.00036
  41        5S         -0.21493  -0.01810   0.07239  -0.06531  -0.00607
  42        5PX        -0.05839  -0.00434   0.02063  -0.04544  -0.00160
  43        5PY         0.00007   0.00133   0.00006   0.00001   0.00646
  44        5PZ         0.00204   0.00018   0.01096   0.00234   0.00010
  45        6D 0        0.00012   0.00003  -0.00132   0.00663   0.00008
  46        6D+1        0.00050   0.00002   0.01201   0.00219   0.00002
  47        6D-1        0.00000  -0.00014   0.00000   0.00000  -0.00022
  48        6D+2       -0.00089  -0.00006   0.00205  -0.01301  -0.00014
  49        6D-2        0.00002   0.00799   0.00000  -0.00015   0.01126
  50        7D 0        0.00088   0.00004  -0.00185   0.00468  -0.00004
  51        7D+1        0.00188   0.00006   0.03470   0.00511   0.00004
  52        7D-1        0.00000  -0.00053   0.00001   0.00000  -0.00046
  53        7D+2       -0.00314  -0.00015   0.00280  -0.01304  -0.00005
  54        7D-2        0.00008   0.02311   0.00001  -0.00038   0.02738
  55 3   C  1S         -0.06364   0.00020   0.00660  -0.00218   0.00022
  56        2S         -0.10068   0.00029   0.01055  -0.00344   0.00033
  57        2PX         0.15197  -0.00052  -0.00014  -0.07514  -0.00086
  58        2PY        -0.00067   0.16620  -0.00007  -0.00019  -0.12789
  59        2PZ         0.01861   0.00009   0.08948   0.00824   0.00003
  60        3S          0.26007  -0.00124  -0.02871   0.01430  -0.00092
  61        3PX         0.20537  -0.00021  -0.00040  -0.10119  -0.00118
  62        3PY        -0.00082   0.23339   0.00012  -0.00046  -0.16465
  63        3PZ         0.02518   0.00027   0.14248   0.01473   0.00016
  64        4S          0.24385   0.00517  -0.03954  -0.03426   0.00298
  65        4PX         0.08911  -0.00046   0.00001  -0.03734  -0.00078
  66        4PY        -0.00055   0.10864   0.00036   0.00032  -0.12852
  67        4PZ         0.01240   0.00025   0.08721   0.00870   0.00029
  68        5S          0.02737   0.00188  -0.00956  -0.00639   0.00078
  69        5PX         0.00501  -0.00075   0.00201  -0.00037  -0.00030
  70        5PY        -0.00024   0.01747  -0.00003   0.00005  -0.01665
  71        5PZ         0.00261  -0.00005   0.01207   0.00029  -0.00004
  72        6D 0       -0.00128  -0.00001   0.00090  -0.00162  -0.00001
  73        6D+1        0.00132  -0.00007  -0.01336  -0.00251   0.00003
  74        6D-1       -0.00004   0.00295   0.00000   0.00001  -0.00257
  75        6D+2       -0.01539  -0.00067  -0.00031   0.00678   0.00079
  76        6D-2       -0.00053  -0.00217   0.00000   0.00029  -0.01525
  77        7D 0        0.00076  -0.00090   0.00350  -0.00084  -0.00069
  78        7D+1        0.00224   0.00017  -0.02482  -0.00486   0.00000
  79        7D-1        0.00002   0.00152   0.00028   0.00006  -0.00265
  80        7D+2       -0.00671  -0.00007  -0.00055  -0.00117   0.00000
  81        7D-2        0.00026  -0.03463   0.00043   0.00043  -0.03097
  82 4   H  1S          0.11693   0.10463  -0.00057  -0.02737  -0.11090
  83        2S          0.15906   0.16622   0.00182  -0.04426  -0.16804
  84        3S          0.02175   0.02269  -0.00556  -0.00861  -0.06676
  85        4PX        -0.00434  -0.00823  -0.00011  -0.00020   0.01221
  86        4PY        -0.01963  -0.01264  -0.00052   0.00464   0.00932
  87        4PZ        -0.00192  -0.00341   0.00640   0.00148   0.00222
  88 5   H  1S          0.12200  -0.10199  -0.00050  -0.02943   0.10724
  89        2S          0.16651  -0.16637   0.00297  -0.04664   0.15941
  90        3S          0.02198  -0.01998  -0.00574  -0.00911   0.06576
  91        4PX        -0.00590   0.00939  -0.00014   0.00033  -0.01236
  92        4PY         0.02001  -0.01223   0.00079  -0.00482   0.00774
  93        4PZ        -0.00215   0.00364   0.00654   0.00157  -0.00202
                          11        12        13        14        15
                           O         V         V         V         V
     Eigenvalues --    -0.24436  -0.07329  -0.01056   0.01151   0.05067
   1 1   N  1S         -0.00189   0.00061  -0.00206   0.00153  -0.01301
   2        2S         -0.00314   0.00102  -0.00344   0.00245  -0.02252
   3        2PX         0.00579  -0.00132   0.00019  -0.00340   0.02731
   4        2PY         0.00002  -0.19922  -0.00079  -0.00020  -0.00890
   5        2PZ         0.03446   0.00048  -0.20805  -0.01815   0.00353
   6        3S          0.01026  -0.00341   0.01241  -0.01382   0.09455
   7        3PX         0.00863  -0.00196   0.00045   0.00135   0.02872
   8        3PY         0.00006  -0.31189  -0.00117  -0.00033  -0.00814
   9        3PZ         0.05515   0.00077  -0.32474  -0.02732   0.00393
  10        4S          0.01123  -0.00306  -0.01370   0.39758   0.07562
  11        4PX         0.01131  -0.00058  -0.03576   0.51889  -0.00141
  12        4PY         0.00030  -0.33634  -0.00133   0.00030  -0.04514
  13        4PZ         0.05172   0.00074  -0.38083  -0.05060   0.01814
  14        5S         -0.09669  -0.02612  -0.00490  -2.96950   1.79904
  15        5PX         0.07019   0.00995  -0.13920   3.64284   0.19801
  16        5PY         0.00032  -0.27063  -0.00081  -0.00387   0.28457
  17        5PZ        -0.02029   0.00045  -0.53653  -0.09136  -0.08822
  18        6D 0       -0.00045  -0.00004   0.00047  -0.00258  -0.00163
  19        6D+1        0.01721   0.00002  -0.00200  -0.00012  -0.00026
  20        6D-1       -0.00001   0.00043  -0.00001   0.00000   0.00009
  21        6D+2        0.00031   0.00005  -0.00045   0.00485   0.00377
  22        6D-2        0.00000  -0.01227  -0.00002  -0.00002  -0.00018
  23        7D 0       -0.00236  -0.00015   0.00176  -0.03063  -0.00647
  24        7D+1        0.07037   0.00010  -0.00668  -0.00133   0.00024
  25        7D-1        0.00007   0.00157   0.00006  -0.00001   0.00011
  26        7D+2       -0.00053   0.00008  -0.00665   0.05661   0.00927
  27        7D-2        0.00016  -0.04517   0.00008   0.00033   0.00239
  28 2   N  1S          0.00016  -0.00009   0.00145  -0.01577  -0.01540
  29        2S          0.00027  -0.00015   0.00238  -0.02567  -0.02607
  30        2PX        -0.00705   0.00086  -0.00130   0.01637  -0.01587
  31        2PY        -0.00009   0.22773   0.00055   0.00032   0.02023
  32        2PZ        -0.20695  -0.00053   0.14827   0.01314  -0.00322
  33        3S         -0.00099   0.00053  -0.00747   0.07448   0.09873
  34        3PX        -0.01001   0.00126  -0.00112   0.01847  -0.00983
  35        3PY        -0.00010   0.34427   0.00087   0.00051   0.03211
  36        3PZ        -0.30595  -0.00080   0.22306   0.02004  -0.00573
  37        4S          0.00568   0.00084  -0.02087   0.37334   0.05963
  38        4PX        -0.00519   0.00139  -0.00414   0.13467  -0.12306
  39        4PY        -0.00019   0.39937   0.00103   0.00076   0.04174
  40        4PZ        -0.29029  -0.00090   0.29301   0.02638  -0.00337
  41        5S          0.13531   0.02283  -0.18683   6.33207   0.13716
  42        5PX         0.02851   0.00624  -0.03732   1.49459   0.15010
  43        5PY        -0.00015   0.26347   0.00105   0.00058  -0.09385
  44        5PZ        -0.06243  -0.00071   0.35864  -0.00298   0.01786
  45        6D 0        0.00026  -0.00002   0.00024  -0.00043  -0.00110
  46        6D+1       -0.00531   0.00001  -0.00676  -0.00070   0.00005
  47        6D-1        0.00000   0.00005   0.00000   0.00000   0.00000
  48        6D+2       -0.00027   0.00003  -0.00022   0.00033   0.00129
  49        6D-2        0.00000  -0.00305  -0.00002   0.00000  -0.00001
  50        7D 0        0.00011   0.00001   0.00066  -0.00192   0.00234
  51        7D+1       -0.00504   0.00004  -0.01889  -0.00128   0.00053
  52        7D-1       -0.00001   0.00039  -0.00001  -0.00001   0.00013
  53        7D+2        0.00029  -0.00006  -0.00002   0.00487  -0.00133
  54        7D-2        0.00001  -0.01287  -0.00005   0.00004   0.00092
  55 3   C  1S          0.00771  -0.00051   0.01028  -0.03834   0.00735
  56        2S          0.01260  -0.00084   0.01699  -0.06418   0.01188
  57        2PX        -0.01030   0.00014  -0.01120   0.01681  -0.02525
  58        2PY        -0.00005  -0.00186   0.00019   0.00063   0.02820
  59        2PZ         0.19240  -0.00015   0.12330   0.01768  -0.00482
  60        3S         -0.03450   0.00248  -0.04974   0.24286  -0.01828
  61        3PX        -0.01706   0.00007  -0.02388   0.09121  -0.06336
  62        3PY        -0.00007  -0.00840   0.00013   0.00082   0.05842
  63        3PZ         0.29107  -0.00031   0.19182   0.02467  -0.01384
  64        4S         -0.07724   0.00265  -0.07218  -0.80916  -0.21150
  65        4PX        -0.01219   0.00277  -0.07415   0.67588   0.02719
  66        4PY        -0.00034  -0.05328   0.00024   0.00433   0.01083
  67        4PZ         0.31167  -0.00020   0.35722   0.05310  -0.00725
  68        5S         -0.02215   0.00571   0.17855  -3.53749  -1.35112
  69        5PX        -0.00005  -0.00266  -0.03926   0.40360   1.83324
  70        5PY        -0.00013   0.11252   0.00090   0.00539  -0.62944
  71        5PZ         0.06703  -0.00027   0.58304  -0.00633   0.09923
  72        6D 0        0.00031   0.00009  -0.00123  -0.00069  -0.00266
  73        6D+1       -0.00589  -0.00009   0.01439   0.00109  -0.00087
  74        6D-1        0.00000   0.00158   0.00000   0.00001   0.00071
  75        6D+2        0.00023  -0.00052  -0.00034   0.00214   0.00847
  76        6D-2       -0.00003   0.02155  -0.00002   0.00003   0.00132
  77        7D 0        0.00550   0.00057   0.00097   0.03743   0.00219
  78        7D+1        0.00056  -0.00007   0.04756   0.00763  -0.00141
  79        7D-1        0.00009   0.00054  -0.00012   0.00003   0.00129
  80        7D+2        0.00215  -0.00071   0.00778  -0.06626   0.04999
  81        7D-2        0.00025   0.04434   0.00035   0.00084   0.00635
  82 4   H  1S          0.00666   0.05958   0.01412   0.00387  -0.00086
  83        2S          0.01535   0.12662   0.03732  -0.01464   0.04913
  84        3S         -0.00527   0.20348   0.05202  -0.24649  -0.05179
  85        4PX        -0.00280   0.00242  -0.00162  -0.00703   0.00461
  86        4PY        -0.00187  -0.00177  -0.00017  -0.01657  -0.00774
  87        4PZ         0.01767   0.00011   0.02001  -0.00054  -0.00167
  88 5   H  1S          0.00692  -0.05944   0.01424   0.00438  -0.02252
  89        2S          0.01583  -0.12533   0.03765  -0.01442   0.07177
  90        3S         -0.00525  -0.20623   0.05305  -0.23939  -0.42011
  91        4PX        -0.00286  -0.00224  -0.00157  -0.00769   0.00870
  92        4PY         0.00186  -0.00119   0.00005   0.01694   0.00069
  93        4PZ         0.01759  -0.00024   0.02030  -0.00070  -0.00121
                          16        17        18        19        20
                           V         V         V         V         V
     Eigenvalues --     0.05117   0.07974   0.10821   0.13835   0.14558
   1 1   N  1S         -0.00522   0.00315  -0.02321  -0.00114   0.00915
   2        2S         -0.00901   0.00560  -0.03923  -0.00200   0.01601
   3        2PX         0.01072  -0.00254  -0.01005   0.00178  -0.00812
   4        2PY         0.01907   0.00057  -0.00217  -0.05656  -0.00385
   5        2PZ         0.00135   0.07510   0.00322   0.00307  -0.03218
   6        3S          0.03769  -0.02925   0.15517   0.00868  -0.07040
   7        3PX         0.01135  -0.00424  -0.00098   0.00284  -0.01601
   8        3PY         0.01525   0.00087  -0.00328  -0.06526  -0.00362
   9        3PZ         0.00157   0.09489   0.00358   0.00366  -0.03333
  10        4S          0.01304   0.12147  -0.29198  -0.03158   0.23437
  11        4PX        -0.01256   0.14860   0.67492  -0.05768   0.31547
  12        4PY         0.11507   0.00204  -0.00827  -0.23339  -0.02047
  13        4PZ         0.00715   0.30830   0.00818   0.01416  -0.14230
  14        5S          0.67580  -2.10079  13.74060   0.49030  -5.60365
  15        5PX         0.06654   1.34468  -4.44793  -0.39909   3.55109
  16        5PY        -0.76062   0.00549  -0.00801   0.32578   0.02494
  17        5PZ        -0.02864  -0.68199   0.02578   0.00628   0.07244
  18        6D 0       -0.00054   0.00044   0.00070  -0.00007   0.00105
  19        6D+1       -0.00010  -0.00218  -0.00009  -0.00038   0.00646
  20        6D-1       -0.00021   0.00000  -0.00001  -0.00037  -0.00005
  21        6D+2        0.00137  -0.00006  -0.00204  -0.00032   0.00212
  22        6D-2        0.00041  -0.00004   0.00021   0.01031   0.00105
  23        7D 0       -0.00161  -0.00458   0.04087  -0.00121   0.01004
  24        7D+1        0.00019  -0.00961   0.00383  -0.00025  -0.00412
  25        7D-1       -0.00049   0.00001  -0.00006  -0.00116  -0.00033
  26        7D+2        0.00197   0.01157  -0.06883  -0.00265   0.02653
  27        7D-2       -0.00358   0.00011  -0.00044  -0.00961  -0.00095
  28 2   N  1S         -0.00552  -0.00069   0.03050  -0.00019   0.00076
  29        2S         -0.00936  -0.00093   0.05033  -0.00031   0.00114
  30        2PX        -0.00651   0.00248   0.00845  -0.00293   0.01835
  31        2PY        -0.05189  -0.00019   0.00070  -0.08581  -0.00833
  32        2PZ        -0.00117  -0.08602  -0.00378   0.00122  -0.05589
  33        3S          0.03564  -0.00100  -0.17790   0.00135  -0.00190
  34        3PX        -0.00413  -0.00167   0.03020  -0.00326   0.01565
  35        3PY        -0.08161  -0.00026   0.00108  -0.08920  -0.00875
  36        3PZ        -0.00204  -0.12445  -0.00500   0.00081  -0.05554
  37        4S          0.01863   0.07592   0.36078  -0.02575   0.07524
  38        4PX        -0.04770   0.04845   0.53998  -0.03017   0.15617
  39        4PY        -0.10825  -0.00061   0.00166  -0.34690  -0.03344
  40        4PZ        -0.00134  -0.23406  -0.02304   0.00561  -0.23200
  41        5S          0.02480   2.69554 -12.09553  -0.76710   7.45729
  42        5PX         0.04645   0.66548  -4.62880  -0.15538   1.81859
  43        5PY         0.25800  -0.00439   0.01115   1.08495   0.10379
  44        5PZ         0.00521   0.28403   0.12271  -0.02826   0.73771
  45        6D 0       -0.00041   0.00018  -0.00017  -0.00009   0.00109
  46        6D+1        0.00003   0.00306   0.00012   0.00028  -0.00407
  47        6D-1        0.00000   0.00000   0.00000   0.00011   0.00001
  48        6D+2        0.00049  -0.00040   0.00122   0.00011  -0.00138
  49        6D-2       -0.00013   0.00004  -0.00016  -0.00652  -0.00057
  50        7D 0        0.00079   0.00103  -0.04226   0.00000   0.00647
  51        7D+1        0.00018  -0.00284  -0.00297   0.00062  -0.01690
  52        7D-1       -0.00032   0.00000   0.00000   0.00000  -0.00005
  53        7D+2       -0.00019  -0.00034   0.07354  -0.00129   0.00127
  54        7D-2       -0.00266   0.00003  -0.00040  -0.02803  -0.00258
  55 3   C  1S          0.00289  -0.00736   0.00225   0.00424  -0.03254
  56        2S          0.00465  -0.01190   0.00359   0.00679  -0.05200
  57        2PX        -0.00841   0.00625   0.04274  -0.00560   0.04515
  58        2PY        -0.07002  -0.00035   0.00344   0.06073   0.00834
  59        2PZ        -0.00175  -0.14316  -0.00498  -0.00470   0.03889
  60        3S         -0.00711   0.03775  -0.01735  -0.01637   0.11723
  61        3PX        -0.02346   0.02345   0.05723  -0.00798   0.06739
  62        3PY        -0.14717  -0.00070   0.00531   0.07341   0.01005
  63        3PZ        -0.00494  -0.20641  -0.00251  -0.00527   0.04998
  64        4S         -0.06410  -0.17830  -0.22916  -0.05509   0.64872
  65        4PX        -0.00887   0.20202   0.54503  -0.12768   0.86894
  66        4PY        -0.02029  -0.00305   0.01912   0.43983   0.07455
  67        4PZ        -0.00357  -0.48758  -0.03663  -0.03214   0.26713
  68        5S         -0.49030  -0.15838  -0.92840  -0.06433   0.75271
  69        5PX         0.66401  -0.02840   0.81759  -0.08952   0.49131
  70        5PY         1.69704  -0.00034   0.00518  -0.39482  -0.01496
  71        5PZ         0.03318   1.43843   0.03353   0.00637  -0.36156
  72        6D 0       -0.00092   0.00184  -0.00719  -0.00133   0.01130
  73        6D+1       -0.00030  -0.00341  -0.00033   0.00016  -0.00182
  74        6D-1       -0.00193   0.00001  -0.00004  -0.00130  -0.00016
  75        6D+2        0.00345   0.00041   0.00962  -0.00107   0.00974
  76        6D-2       -0.00334   0.00007  -0.00003  -0.00436  -0.00011
  77        7D 0       -0.00027   0.01398  -0.00715  -0.00903   0.06172
  78        7D+1       -0.00052  -0.00058   0.00571   0.00013  -0.01739
  79        7D-1       -0.00350  -0.00032  -0.00001  -0.00082   0.00061
  80        7D+2        0.02356  -0.01664   0.00465   0.00511  -0.02842
  81        7D-2       -0.00993   0.00023  -0.00153  -0.04989  -0.00254
  82 4   H  1S         -0.03487  -0.01466   0.00365  -0.00265  -0.06518
  83        2S          0.04691   0.00417  -0.04442  -0.00937  -0.10150
  84        3S         -0.57345  -0.30429   0.14010  -0.37242  -2.14964
  85        4PX         0.00682  -0.00049   0.01035  -0.01000   0.00071
  86        4PY         0.00770   0.00017  -0.00363  -0.00934  -0.01825
  87        4PZ        -0.00003  -0.00634  -0.00114  -0.00331   0.00009
  88 5   H  1S          0.02537  -0.01484   0.00561   0.01933  -0.06268
  89        2S         -0.00008   0.00216  -0.04161   0.03070  -0.09045
  90        3S          0.40357  -0.31142   0.17918   0.88094  -1.98756
  91        4PX        -0.00238  -0.00039   0.01053   0.01069   0.00160
  92        4PY         0.01078  -0.00012   0.00365  -0.01363   0.01707
  93        4PZ        -0.00114  -0.00666  -0.00100   0.00305   0.00062
                          21        22        23        24        25
                           V         V         V         V         V
     Eigenvalues --     0.15034   0.18849   0.21481   0.22048   0.22528
   1 1   N  1S          0.00687  -0.01849   0.00014   0.01065   0.00559
   2        2S          0.01213  -0.03086   0.00026   0.01797   0.00948
   3        2PX        -0.00544   0.02195   0.00056  -0.05045  -0.02951
   4        2PY        -0.00140  -0.00319  -0.10363   0.00663   0.00689
   5        2PZ         0.00869  -0.00047   0.00006  -0.05345   0.08053
   6        3S         -0.05658   0.05260  -0.00154  -0.05032  -0.02996
   7        3PX        -0.01022   0.01183   0.00015  -0.04689  -0.02388
   8        3PY        -0.00101  -0.00458  -0.12470   0.01115   0.01097
   9        3PZ         0.00068   0.00048   0.00018  -0.05822   0.08646
  10        4S          0.23404   1.08190   0.00225  -0.33282  -0.08829
  11        4PX         0.27753   0.83260  -0.00943   1.02763   0.65463
  12        4PY        -0.00987  -0.01333  -0.54397   0.03587   0.03654
  13        4PZ         0.02149  -0.01802   0.00093  -0.31779   0.39512
  14        5S         -4.92032  -6.15416  -0.09158  -0.58842  -0.68526
  15        5PX         3.05578   6.24323  -0.03034   7.94608   5.01769
  16        5PY         0.00209   0.00560   3.91291   0.22339   0.19302
  17        5PZ        -0.34822  -0.11830  -0.00735   1.97455  -3.45401
  18        6D 0        0.00116   0.01602  -0.00013   0.00393   0.00242
  19        6D+1       -0.00594   0.00084  -0.00002  -0.00135   0.00362
  20        6D-1       -0.00003  -0.00002  -0.00033   0.00014   0.00014
  21        6D+2        0.00159  -0.02719   0.00035  -0.00271  -0.00219
  22        6D-2        0.00050   0.00009  -0.00259  -0.00094  -0.00086
  23        7D 0        0.00678  -0.00789  -0.00010   0.02616   0.01550
  24        7D+1        0.01413   0.00152   0.00035   0.00040  -0.00301
  25        7D-1       -0.00027  -0.00027   0.00228   0.00168   0.00172
  26        7D+2        0.02402   0.01207   0.00134  -0.04159  -0.02091
  27        7D-2       -0.00028   0.00130  -0.00990  -0.00217  -0.00307
  28 2   N  1S          0.00076   0.03677  -0.00035  -0.00028   0.00002
  29        2S          0.00122   0.06079  -0.00059   0.00108   0.00110
  30        2PX         0.01782  -0.09199   0.00142  -0.01690  -0.01423
  31        2PY        -0.00320   0.00363   0.04255  -0.01143  -0.01112
  32        2PZ         0.09384   0.00219   0.00003   0.01660  -0.01804
  33        3S         -0.00392  -0.17742   0.00232  -0.05252  -0.03540
  34        3PX         0.01425  -0.16852   0.00158   0.01667   0.00217
  35        3PY        -0.00332   0.00457   0.03874  -0.01416  -0.01398
  36        3PZ         0.10103   0.00346   0.00012   0.01211  -0.01245
  37        4S          0.07054  -0.65689  -0.00423   1.18752   0.72315
  38        4PX         0.14464  -0.06115  -0.00177   0.51929   0.29445
  39        4PY        -0.01260   0.01499   0.26039  -0.04794  -0.04715
  40        4PZ         0.38540   0.00657   0.00019   0.11423  -0.16229
  41        5S          6.43081  14.24583  -0.01282   9.11073   5.95165
  42        5PX         1.52530   4.21130   0.00450   0.75398   0.59392
  43        5PY         0.04414  -0.03486  -2.41190   0.00913   0.02520
  44        5PZ        -1.05321  -0.08677   0.00295  -1.26410   1.89977
  45        6D 0        0.00066   0.00593  -0.00002  -0.00051  -0.00044
  46        6D+1        0.00306   0.00032   0.00000  -0.00122   0.00127
  47        6D-1        0.00000   0.00000   0.00009  -0.00001   0.00000
  48        6D+2       -0.00097  -0.00913   0.00004   0.00051   0.00052
  49        6D-2       -0.00025  -0.00014  -0.00192   0.00056   0.00053
  50        7D 0        0.00408   0.00837   0.00064  -0.03078  -0.01727
  51        7D+1        0.02495   0.00183   0.00009   0.01115  -0.02145
  52        7D-1       -0.00007  -0.00009  -0.00120   0.00050   0.00053
  53        7D+2        0.00185  -0.01550  -0.00059   0.06459   0.03755
  54        7D-2       -0.00097   0.00054   0.02050  -0.00095  -0.00119
  55 3   C  1S         -0.02594   0.03893  -0.00104   0.01824   0.01265
  56        2S         -0.04146   0.06598  -0.00166   0.02796   0.01951
  57        2PX         0.03511   0.09150   0.00001  -0.02525  -0.01398
  58        2PY         0.00544   0.00578  -0.02104  -0.02560  -0.02521
  59        2PZ         0.01399  -0.00088   0.00040  -0.01779   0.04305
  60        3S          0.09421  -0.16291   0.00237   0.01946   0.00469
  61        3PX         0.05603   0.24584   0.00021  -0.02535  -0.00358
  62        3PY         0.00627   0.00702  -0.05298  -0.02995  -0.02847
  63        3PZ         0.00112  -0.01081   0.00043  -0.02751   0.01957
  64        4S          0.48082  -2.69941   0.07044  -3.07096  -1.95741
  65        4PX         0.73253   1.34070   0.00508   0.74833   0.54233
  66        4PY         0.05353   0.04388  -0.27321  -0.22248  -0.22234
  67        4PZ         0.14287   0.00597   0.00420  -0.09657   0.32271
  68        5S          0.60800  -5.31873   0.11489  -4.66229  -2.86856
  69        5PX         0.36839   1.68898  -0.02002   1.26266   0.75477
  70        5PY         0.01173   0.03959  -1.21576  -0.32191  -0.32179
  71        5PZ         0.73052  -0.01238   0.00693  -0.71660   1.24335
  72        6D 0        0.00868   0.00078   0.00008   0.01064   0.00711
  73        6D+1        0.00091  -0.00017  -0.00001   0.00224  -0.00436
  74        6D-1       -0.00010  -0.00013  -0.00093   0.00056   0.00058
  75        6D+2        0.00792   0.00529   0.00033  -0.00455  -0.00272
  76        6D-2        0.00000  -0.00015   0.00375   0.00175   0.00168
  77        7D 0        0.05159   0.04868  -0.00029   0.11882   0.07266
  78        7D+1        0.03789   0.00844   0.00105  -0.02090   0.01142
  79        7D-1        0.00021  -0.00052  -0.01700   0.00397   0.00361
  80        7D+2       -0.02453  -0.06941   0.00461  -0.07122  -0.05879
  81        7D-2        0.00009   0.00104  -0.10419   0.00306   0.00122
  82 4   H  1S         -0.05065  -0.00116  -0.01097  -0.01457  -0.00643
  83        2S         -0.08050   0.01348   0.13919   0.18945   0.09231
  84        3S         -1.74732  -0.32925  -0.33760  -0.69261  -0.27995
  85        4PX         0.00190   0.01034  -0.01350  -0.01780  -0.00648
  86        4PY        -0.01364  -0.00512  -0.01146  -0.00049   0.00162
  87        4PZ         0.00338  -0.00126  -0.00169   0.00288   0.00001
  88 5   H  1S         -0.04910   0.00325   0.01051  -0.02424  -0.01504
  89        2S         -0.07110   0.02307  -0.14105   0.16407   0.07176
  90        3S         -1.63676  -0.20530   0.23708  -1.44938  -1.06996
  91        4PX         0.00210   0.01276   0.01492  -0.02345  -0.01193
  92        4PY         0.01338   0.00638  -0.01095   0.00570   0.00399
  93        4PZ         0.00391  -0.00114   0.00180  -0.00015  -0.00218
                          26        27        28        29        30
                           V         V         V         V         V
     Eigenvalues --     0.22794   0.25640   0.29862   0.38309   0.49826
   1 1   N  1S          0.00122   0.06852   0.00705   0.03214   0.00025
   2        2S          0.00190   0.11245   0.01410   0.05520   0.00039
   3        2PX         0.00883  -0.01509   0.02489   0.10923   0.01622
   4        2PY         0.04913  -0.00138   0.00128   0.00030  -0.08681
   5        2PZ        -0.00423   0.00315  -0.00125  -0.00548   0.00138
   6        3S         -0.00256  -0.24151  -0.13742  -0.21535   0.00715
   7        3PX         0.00388  -0.03227   0.05604   0.22370   0.03184
   8        3PY         0.07421  -0.00250   0.00293   0.00066  -0.14099
   9        3PZ        -0.00498   0.00030   0.00037  -0.00605   0.00216
  10        4S         -0.07979  -3.61788   1.29331   0.91221  -0.12918
  11        4PX        -0.20812  -0.28654   1.38040   3.54094   0.32170
  12        4PY         0.26373  -0.00761   0.00388  -0.00997  -0.26748
  13        4PZ        -0.01176   0.02757  -0.04893  -0.08045   0.00043
  14        5S          1.01413   7.21246 -43.34681  28.40861  -0.80394
  15        5PX        -2.04262  -3.05649  20.00045  -8.18799   1.14872
  16        5PY         1.14494  -0.07939   0.03774   0.00151  -1.00284
  17        5PZ         0.18674  -0.02694  -0.37080   0.13729   0.01133
  18        6D 0       -0.00091  -0.01057  -0.00568  -0.00883  -0.00059
  19        6D+1       -0.00028  -0.00053  -0.00009  -0.00047  -0.00027
  20        6D-1        0.00105  -0.00008   0.00004   0.00001  -0.00301
  21        6D+2        0.00061   0.01958   0.01147   0.01349   0.00135
  22        6D-2       -0.00553   0.00018  -0.00026   0.00015   0.01350
  23        7D 0       -0.00460   0.03645  -0.08464  -0.02955   0.00605
  24        7D+1        0.00074  -0.00173  -0.00617   0.00360  -0.00001
  25        7D-1        0.01294  -0.00075   0.00017   0.00017  -0.07734
  26        7D+2        0.00293  -0.09608   0.17779   0.10331  -0.01201
  27        7D-2       -0.02636   0.00157   0.00025  -0.00296   0.07133
  28 2   N  1S          0.00093  -0.01178  -0.00036  -0.03469  -0.00176
  29        2S          0.00097  -0.02308  -0.00033  -0.05579  -0.00281
  30        2PX         0.00841   0.13582   0.11702   0.08348   0.00656
  31        2PY        -0.07607   0.00391  -0.00181  -0.00064   0.02717
  32        2PZ         0.00117  -0.00287  -0.00142  -0.00158   0.00000
  33        3S          0.01133   0.10963  -0.00650   0.09623  -0.00149
  34        3PX         0.00710   0.27857   0.06551   0.16358   0.01889
  35        3PY        -0.09667   0.00518  -0.00248  -0.00201   0.02257
  36        3PZ         0.00119  -0.00566  -0.00114  -0.00350   0.00114
  37        4S         -0.27671   0.29655   0.16626   2.94158   0.33403
  38        4PX        -0.07812   0.75310   0.90720   1.40688   0.21692
  39        4PY        -0.32661   0.01616  -0.00553   0.00144   0.20647
  40        4PZ         0.00977  -0.02361  -0.00647  -0.01637  -0.00901
  41        5S         -2.49958  -4.87709  49.24043 -26.34293   1.78805
  42        5PX        -0.27499  -1.11851  12.51691  -7.56664   0.30560
  43        5PY         0.29284  -0.02020  -0.00305   0.01050   0.56022
  44        5PZ        -0.08578   0.07011  -0.23594   0.16362  -0.03281
  45        6D 0        0.00051   0.00450   0.00324   0.00933   0.00095
  46        6D+1        0.00000   0.00052  -0.00007   0.00017   0.00025
  47        6D-1       -0.00002   0.00000   0.00000   0.00000  -0.00036
  48        6D+2       -0.00079  -0.00818  -0.00539  -0.01623  -0.00185
  49        6D-2        0.00358  -0.00009   0.00008  -0.00008  -0.00786
  50        7D 0        0.00518  -0.02324   0.00427  -0.01895  -0.00342
  51        7D+1        0.00132  -0.00425   0.00154   0.00043   0.00092
  52        7D-1        0.00421  -0.00036   0.00010   0.00013  -0.01445
  53        7D+2       -0.01297   0.03435   0.00196   0.02150   0.01066
  54        7D-2       -0.01016   0.00066   0.00065   0.00000  -0.04909
  55 3   C  1S         -0.00684  -0.03709   0.00593  -0.00486   0.00542
  56        2S         -0.01095  -0.06616   0.01096  -0.00936   0.00939
  57        2PX         0.00663  -0.11207  -0.13267  -0.10410  -0.00956
  58        2PY        -0.17617   0.00878  -0.00452  -0.00140   0.03499
  59        2PZ        -0.00217  -0.00026   0.00521   0.00143   0.00403
  60        3S          0.00980   0.21823   0.02195   0.09364  -0.01263
  61        3PX        -0.00190  -0.34389   0.00122   0.05013  -0.03705
  62        3PY        -0.18773   0.00496  -0.00586   0.00101   0.18335
  63        3PZ         0.00308   0.00418  -0.00892   0.00390   0.01243
  64        4S          0.76054   1.76564  -3.48733  -4.41091  -0.53068
  65        4PX        -0.16006  -1.72977   0.90806   3.85850   0.15752
  66        4PY        -1.59966   0.07848  -0.01644   0.00944   1.83186
  67        4PZ        -0.02541  -0.02853   0.06393   0.01118  -0.05302
  68        5S          0.77456  -1.88007  -3.02414  -1.59076  -0.25315
  69        5PX        -0.00840   1.73451  -0.45422  -0.04021   0.17606
  70        5PY        -2.29092   0.17551  -0.04967  -0.04138  -0.48705
  71        5PZ        -0.05703  -0.01734   0.04608  -0.08707   0.03927
  72        6D 0       -0.00217   0.00483   0.00401  -0.00967  -0.00422
  73        6D+1        0.00020   0.00045  -0.00091  -0.00242   0.00030
  74        6D-1        0.00393  -0.00018   0.00007   0.00002  -0.00777
  75        6D+2       -0.00024  -0.01694   0.00183   0.03383   0.00217
  76        6D-2        0.01081  -0.00071   0.00041   0.00069  -0.02436
  77        7D 0       -0.02587  -0.04981   0.13354   0.19504  -0.00504
  78        7D+1        0.00082  -0.02007   0.00417   0.04025  -0.00379
  79        7D-1        0.02950  -0.00316   0.00215   0.00107  -0.28796
  80        7D+2        0.01815   0.08745  -0.14746  -0.33569  -0.02408
  81        7D-2       -0.00238  -0.00242   0.00614  -0.00288   0.16029
  82 4   H  1S          0.02965   0.00316  -0.00778  -0.04101  -0.06204
  83        2S          0.01802   0.11925   0.04249  -0.51944  -1.24611
  84        3S          3.14851   0.20816  -0.66203   0.77950   0.59193
  85        4PX         0.02031  -0.03508   0.00890   0.03852  -0.01689
  86        4PY         0.02086  -0.00169   0.00866   0.00971   0.07239
  87        4PZ         0.00975  -0.00100   0.00207   0.00444  -0.01644
  88 5   H  1S         -0.02482   0.00078  -0.00978  -0.03648   0.09372
  89        2S         -0.08525   0.09006   0.05251  -0.50204   1.63118
  90        3S         -2.71665   0.65235  -0.77156   0.68622  -1.39370
  91        4PX        -0.01742  -0.03350   0.00787   0.04089   0.00725
  92        4PY         0.01961  -0.00612  -0.00610  -0.00338   0.07172
  93        4PZ        -0.00992   0.00084   0.00152   0.00357   0.01342
                          31        32        33        34        35
                           V         V         V         V         V
     Eigenvalues --     0.51031   0.55261   0.56944   0.64418   0.67012
   1 1   N  1S         -0.00591  -0.00285   0.00088  -0.00375   0.00000
   2        2S         -0.00913  -0.00534   0.00160  -0.00409   0.00001
   3        2PX         0.09952   0.03506  -0.00124   0.19986   0.00725
   4        2PY         0.00858  -0.00048  -0.06947   0.00318  -0.01058
   5        2PZ        -0.00347   0.04028  -0.00125  -0.00230   0.00010
   6        3S          0.03110   0.04586  -0.00764   0.11463   0.01311
   7        3PX         0.17493   0.07671  -0.00564   0.43614   0.02383
   8        3PY         0.00980  -0.00300  -0.17910   0.00716   0.02641
   9        3PZ        -0.01452   0.10681  -0.00365  -0.00700  -0.00098
  10        4S          0.37771  -0.12335  -0.09852  -6.30898  -0.53938
  11        4PX         2.65705   0.51022  -0.09574   0.56878  -0.00131
  12        4PY         0.06035   0.00703   0.06165   0.03129  -0.38774
  13        4PZ         0.05428  -0.29596   0.00797  -0.01081   0.00249
  14        5S         -1.35296  -1.51632  -0.28983 -14.84299  -0.74279
  15        5PX         6.16125   2.32298  -0.07608   6.56613   0.11552
  16        5PY         0.18177   0.02857  -0.00144   0.11670  -2.05856
  17        5PZ         0.13304  -0.73861   0.01508  -0.07347   0.03912
  18        6D 0       -0.00293  -0.00159   0.00043   0.00427   0.00059
  19        6D+1       -0.00005  -0.00698   0.00032  -0.00011   0.00009
  20        6D-1        0.00067   0.00047   0.00772  -0.00041   0.00629
  21        6D+2        0.00465   0.00276   0.00010   0.00141   0.00001
  22        6D-2       -0.00161   0.00019   0.01538  -0.00111   0.00364
  23        7D 0       -0.00954   0.03523   0.00193   0.28670   0.03906
  24        7D+1        0.02127  -0.09039   0.00147   0.01568   0.00128
  25        7D-1        0.01643   0.00931   0.16699  -0.00782   0.10086
  26        7D+2       -0.04456  -0.03433   0.00142  -0.46222  -0.03328
  27        7D-2       -0.00531  -0.00148   0.04243   0.00912  -0.10026
  28 2   N  1S         -0.00975  -0.00285   0.00015  -0.01612  -0.00124
  29        2S         -0.01494  -0.00488   0.00028  -0.02545  -0.00212
  30        2PX         0.02339   0.00713   0.00165  -0.01378  -0.00692
  31        2PY        -0.00272   0.00023   0.02777  -0.00210   0.03571
  32        2PZ         0.00987  -0.03324   0.00097  -0.00085  -0.00010
  33        3S         -0.01935   0.00250  -0.00043  -0.08074  -0.00177
  34        3PX         0.07372   0.03122   0.00144   0.03815  -0.00679
  35        3PY        -0.00034   0.00045   0.03845  -0.00111   0.07532
  36        3PZ         0.03256  -0.09447   0.00241  -0.00365  -0.00032
  37        4S          2.22207   0.54849  -0.05428   3.48116   0.24800
  38        4PX         1.31474   0.36362  -0.02201   3.11245   0.23040
  39        4PY        -0.03510  -0.00415   0.03796  -0.00813  -0.02278
  40        4PZ        -0.07309   0.09534  -0.00218  -0.05530  -0.00562
  41        5S          7.73787   3.49693   0.11643  15.67557   0.45720
  42        5PX         1.02071   0.60418   0.05678   3.08077   0.07094
  43        5PY        -0.08863  -0.01127   0.04237  -0.04790   0.79662
  44        5PZ        -0.25546   0.49219  -0.01023  -0.06835  -0.01932
  45        6D 0        0.00571   0.00154  -0.00003   0.01756   0.00122
  46        6D+1        0.00164  -0.00058  -0.00001   0.00112   0.00010
  47        6D-1        0.00008   0.00004   0.00084  -0.00005   0.00055
  48        6D+2       -0.01155  -0.00286   0.00009  -0.03133  -0.00195
  49        6D-2        0.00113   0.00008  -0.00379   0.00030  -0.00002
  50        7D 0       -0.01620  -0.00064   0.00075  -0.08974  -0.00315
  51        7D+1       -0.00345   0.03334  -0.00157  -0.00558  -0.00028
  52        7D-1        0.00366   0.00295   0.06074  -0.00328   0.04361
  53        7D+2        0.05592   0.02295  -0.00180   0.17442   0.02110
  54        7D-2        0.00323  -0.00167  -0.08283   0.00647  -0.02924
  55 3   C  1S          0.03903   0.01760  -0.00263   0.00454   0.00177
  56        2S          0.06894   0.03118  -0.00472   0.00047   0.00291
  57        2PX        -0.06121  -0.02651   0.00508   0.22373   0.01242
  58        2PY        -0.00208   0.00008   0.12622   0.01288  -0.23437
  59        2PZ         0.06805  -0.22571   0.00575   0.00014   0.00326
  60        3S         -0.13813  -0.11604   0.02270   0.16642  -0.01436
  61        3PX        -0.13805  -0.11470   0.00762   0.14424  -0.00626
  62        3PY        -0.01511   0.00300   0.43895   0.03170  -0.66910
  63        3PZ         0.23456  -0.84570   0.02160  -0.01633   0.01443
  64        4S         -4.20568  -0.54933   0.09189   0.70595   0.21768
  65        4PX         2.33833   0.64266  -0.17343  -3.22063  -0.37568
  66        4PY        -0.32526  -0.03444  -0.61528  -0.25306   4.18272
  67        4PZ        -0.61470   1.73581  -0.04698  -0.04088  -0.04546
  68        5S         -1.48956  -0.23327  -0.01456  -0.60146   0.13031
  69        5PX         0.95035   0.35691  -0.00545  -0.01827  -0.09386
  70        5PY         0.03795  -0.00461  -0.41415  -0.05216   1.38179
  71        5PZ         0.38460  -0.37447   0.00325  -0.04217  -0.01151
  72        6D 0       -0.03000  -0.01376   0.00169  -0.00854  -0.00039
  73        6D+1       -0.00251   0.01368  -0.00031   0.00029   0.00004
  74        6D-1        0.00125   0.00015   0.00048   0.00002   0.00077
  75        6D+2        0.00955   0.00436  -0.00006   0.02208   0.00081
  76        6D-2        0.00210  -0.00008  -0.01784   0.00021   0.00609
  77        7D 0       -0.08305  -0.03560   0.02330  -0.09597   0.00999
  78        7D+1       -0.03503   0.11942  -0.00832  -0.04586  -0.00795
  79        7D-1        0.06148   0.04000   0.66617  -0.03566   0.48914
  80        7D+2       -0.19361  -0.05079   0.04018   0.85449   0.03572
  81        7D-2       -0.03070  -0.01006  -0.28197   0.00500   0.34229
  82 4   H  1S          0.10415   0.04912  -0.07244  -0.01480   0.04943
  83        2S          1.35297   0.36671  -0.46595   0.43427  -0.72926
  84        3S         -2.84588  -1.21851   1.39714   0.50722  -2.58764
  85        4PX        -0.00808   0.01243  -0.04681  -0.02730   0.03047
  86        4PY         0.00019   0.01338  -0.00627  -0.06702   0.10929
  87        4PZ        -0.00249   0.00243   0.02660  -0.01244   0.02139
  88 5   H  1S          0.08989   0.04989   0.06095  -0.01350  -0.04614
  89        2S          0.95830   0.34397   0.42374   0.30681   0.80041
  90        3S         -2.72953  -1.24741  -1.09114   0.30259   2.74407
  91        4PX        -0.00655   0.01360   0.03893  -0.03652  -0.03580
  92        4PY        -0.01881  -0.01298   0.00296   0.04884   0.11024
  93        4PZ        -0.01004   0.00128  -0.02627  -0.00883  -0.02112
                          36        37        38        39        40
                           V         V         V         V         V
     Eigenvalues --     0.75430   0.76413   0.77126   0.78010   0.80056
   1 1   N  1S          0.00733   0.00168  -0.00019  -0.00135  -0.00531
   2        2S          0.01321   0.00499  -0.00040  -0.00255  -0.00991
   3        2PX         0.05372  -0.14019   0.00733   0.00156   0.00452
   4        2PY        -0.00504  -0.00692  -0.10236   0.00008  -0.00107
   5        2PZ        -0.04944  -0.01851   0.00270  -0.10164  -0.09494
   6        3S         -0.10809   0.01382  -0.00083   0.01912   0.06788
   7        3PX         0.11429  -0.09263   0.00469  -0.01168  -0.02205
   8        3PY        -0.01446  -0.02813  -0.38619  -0.00046  -0.00489
   9        3PZ        -0.15056  -0.06254   0.00858  -0.39676  -0.29272
  10        4S          0.77815  -2.92354   0.16939   0.01242   0.00035
  11        4PX        -0.61221   2.35136  -0.07879  -0.04732   0.17482
  12        4PY        -0.00712   0.03774   1.02817   0.00518   0.01417
  13        4PZ         0.05546   0.00077  -0.00736   0.73901   0.02735
  14        5S         -7.93204  -1.10830   0.01593   0.88071   2.24208
  15        5PX         4.24491  -2.31584   0.21580  -0.28266  -0.40891
  16        5PY        -0.09218  -0.00167  -1.07235   0.00803  -0.00649
  17        5PZ        -0.62452  -0.17882   0.03090  -0.65383  -0.94601
  18        6D 0       -0.01156  -0.00108   0.00038   0.00163   0.00272
  19        6D+1        0.01276   0.00573  -0.00062  -0.00286   0.03990
  20        6D-1        0.00024  -0.00004   0.00195  -0.00006  -0.00023
  21        6D+2       -0.00849  -0.00929   0.00042   0.00186   0.00544
  22        6D-2        0.00104   0.00040  -0.01686  -0.00015   0.00008
  23        7D 0       -0.44106   0.17799  -0.00691   0.06080   0.18974
  24        7D+1       -0.03043   0.00761  -0.00082   0.22557  -0.14237
  25        7D-1        0.00503  -0.00127   0.02757  -0.00144  -0.01030
  26        7D+2       -0.10677  -0.43819   0.02704   0.04514   0.10453
  27        7D-2       -0.00613   0.01021   0.27141   0.00196   0.00220
  28 2   N  1S         -0.00165  -0.01017   0.00070   0.00066   0.00148
  29        2S         -0.00136  -0.01978   0.00141   0.00105   0.00241
  30        2PX         0.06103  -0.21600   0.01103   0.00058   0.00777
  31        2PY         0.00147  -0.01356  -0.21483  -0.00129  -0.00154
  32        2PZ         0.00439   0.00857  -0.00042  -0.21115   0.10517
  33        3S         -0.01510   0.03808  -0.00533  -0.00005  -0.00425
  34        3PX         0.05797  -0.39623   0.02041   0.00388   0.04375
  35        3PY         0.00011  -0.04797  -0.69443  -0.00385  -0.00554
  36        3PZ        -0.03090   0.00383   0.00112  -0.72310   0.22748
  37        4S         -0.66681   3.28244  -0.14181  -0.07459   0.07248
  38        4PX        -0.43884   3.09305  -0.15072  -0.06919  -0.09118
  39        4PY         0.00435   0.09183   1.27074   0.00696   0.00979
  40        4PZ         0.10495  -0.03899  -0.00125   1.41736  -0.40957
  41        5S          9.18837  -2.25499   0.24198  -0.78306  -1.59681
  42        5PX         2.23874  -0.90531   0.06832  -0.19281  -0.39835
  43        5PY         0.02688  -0.04975  -0.38900  -0.00646  -0.00345
  44        5PZ         0.13903   0.08680  -0.01185  -0.55986   0.60161
  45        6D 0       -0.00161   0.00822  -0.00037   0.00056   0.00062
  46        6D+1       -0.00355  -0.00064   0.00014  -0.01677  -0.00235
  47        6D-1        0.00004   0.00001   0.00048  -0.00001  -0.00010
  48        6D+2       -0.00399  -0.01518   0.00074   0.00100   0.00295
  49        6D-2       -0.00025  -0.00118  -0.01277  -0.00006  -0.00013
  50        7D 0       -0.17503  -0.21279   0.01390   0.05147   0.14576
  51        7D+1       -0.09982  -0.05230   0.00575  -0.04579  -0.28708
  52        7D-1        0.00290  -0.00025   0.02120  -0.00095  -0.00728
  53        7D+2       -0.21838   0.25718  -0.01111   0.02276   0.08115
  54        7D-2       -0.00694  -0.00460   0.03839   0.00054  -0.00246
  55 3   C  1S         -0.01707   0.04043  -0.00308   0.00193  -0.00039
  56        2S         -0.03431   0.07952  -0.00586   0.00368  -0.00059
  57        2PX         0.05940  -0.07611   0.00597  -0.00444  -0.00034
  58        2PY        -0.00700   0.00423  -0.01945   0.00061  -0.00087
  59        2PZ        -0.02642  -0.00873   0.00145   0.01109  -0.06811
  60        3S          0.14160  -0.84661   0.06505   0.00563   0.09033
  61        3PX         0.34859  -0.20834   0.01203  -0.04796  -0.09096
  62        3PY        -0.01767   0.02084  -0.03987  -0.00114  -0.00816
  63        3PZ        -0.09954   0.01434   0.00086  -0.07170  -0.21390
  64        4S          0.71644   2.82343  -0.31576  -0.17281  -0.97609
  65        4PX         0.22879   0.71554  -0.05652  -0.05637   0.02506
  66        4PY         0.21195  -0.03864   0.43215  -0.02916  -0.04156
  67        4PZ         0.54355   0.18459  -0.02558  -0.24184   0.67446
  68        5S         -0.62675   2.10303  -0.15660  -0.02022  -0.27944
  69        5PX        -0.06918  -0.66266   0.03154   0.07038   0.19025
  70        5PY         0.06637  -0.00490   0.78971  -0.00449   0.00510
  71        5PZ         0.14455   0.09789  -0.01423   0.48086   0.19939
  72        6D 0        0.00178   0.00034   0.00011  -0.00123  -0.00270
  73        6D+1       -0.00402  -0.00182   0.00016   0.00044  -0.01312
  74        6D-1        0.00004   0.00001   0.00182   0.00002   0.00007
  75        6D+2       -0.00031  -0.00903   0.00048   0.00058   0.00370
  76        6D-2       -0.00019  -0.00007   0.00531  -0.00003   0.00006
  77        7D 0       -0.69421  -0.10734   0.01699   0.07301   0.19957
  78        7D+1       -0.28130  -0.08303   0.00884   0.09457  -1.00021
  79        7D-1        0.02054  -0.00035   0.08368  -0.00352  -0.00792
  80        7D+2       -0.38395  -0.49336   0.02268   0.07249   0.12883
  81        7D-2       -0.00520  -0.00810   0.67641  -0.00045  -0.01002
  82 4   H  1S         -0.03144   0.01690   0.01554   0.00629   0.00514
  83        2S         -1.02138  -0.69426  -0.33985   0.18778   0.48672
  84        3S         -0.38302  -0.14364  -0.45709  -0.03066  -0.05981
  85        4PX         0.01030   0.04360  -0.00555  -0.00707  -0.02016
  86        4PY         0.03185   0.09348   0.04423  -0.00456  -0.01735
  87        4PZ        -0.00255   0.01507   0.00648  -0.01510  -0.03752
  88 5   H  1S         -0.03149   0.01691  -0.01866   0.00618   0.00403
  89        2S         -0.92358  -0.65481   0.48019   0.16631   0.43641
  90        3S         -0.14299  -0.25468   0.50968  -0.05596  -0.07590
  91        4PX         0.01785   0.04794  -0.01223  -0.00738  -0.02234
  92        4PY        -0.01886  -0.09137   0.06036   0.00158   0.01272
  93        4PZ        -0.00569   0.01469  -0.00928  -0.01684  -0.04397
                          41        42        43        44        45
                           V         V         V         V         V
     Eigenvalues --     0.85996   0.86674   0.86779   0.87489   0.96296
   1 1   N  1S         -0.00318  -0.02031  -0.02754  -0.00425  -0.03200
   2        2S         -0.00579  -0.03711  -0.05048  -0.00770  -0.06458
   3        2PX        -0.02020  -0.10634  -0.14321  -0.02715  -0.01891
   4        2PY        -0.12308  -0.10473   0.09263   0.00042  -0.00089
   5        2PZ         0.00078   0.02208   0.02716  -0.19734  -0.01122
   6        3S          0.03398   0.20826   0.28788   0.03902   0.62020
   7        3PX        -0.03125  -0.17643  -0.23542  -0.05404  -0.01780
   8        3PY        -0.40178  -0.37936   0.33380   0.00129  -0.00649
   9        3PZ         0.00148   0.07050   0.08674  -0.71016  -0.04889
  10        4S         -0.10072  -0.63024  -0.90038  -0.11787  -3.55727
  11        4PX         0.72520   4.19516   5.63219   0.97220  -0.11536
  12        4PY         1.72277   1.16139  -1.05647  -0.00492   0.03506
  13        4PZ        -0.03194  -0.28709  -0.38125   2.37322   0.07072
  14        5S         -0.55311  -3.51652  -4.89534  -0.89661   7.18485
  15        5PX         1.06740   6.51243   8.88569   1.43567  -2.10251
  16        5PY        -1.11929  -0.85157   0.76968   0.00329  -0.01240
  17        5PZ        -0.01873   0.04273   0.03816  -1.89112   0.00032
  18        6D 0        0.00017   0.00043   0.00023   0.00088  -0.01000
  19        6D+1        0.00058  -0.00028   0.00062  -0.01732   0.00453
  20        6D-1        0.00602  -0.00605   0.00377  -0.00007  -0.00007
  21        6D+2        0.00043   0.00252   0.00359   0.00007   0.01930
  22        6D-2       -0.02095  -0.00148   0.00322   0.00005  -0.00066
  23        7D 0        0.00561  -0.00736  -0.00616  -0.00355  -0.07300
  24        7D+1       -0.00182   0.00724   0.00660  -0.13757  -0.00622
  25        7D-1        0.33408  -0.38864   0.24725  -0.00186   0.00313
  26        7D+2       -0.00243  -0.00334  -0.00380   0.00623  -0.39981
  27        7D-2       -0.03624  -0.08149   0.07482   0.00094  -0.00039
  28 2   N  1S          0.00003  -0.00195  -0.00277  -0.00085   0.00444
  29        2S          0.00016  -0.00292  -0.00422  -0.00134   0.00421
  30        2PX        -0.01918  -0.10111  -0.13583  -0.02000  -0.03942
  31        2PY         0.07553   0.04676  -0.04093  -0.00025  -0.00184
  32        2PZ         0.00013  -0.00839  -0.00912   0.06266   0.00732
  33        3S         -0.01046  -0.03725  -0.04846  -0.00435  -0.00033
  34        3PX        -0.02757  -0.14377  -0.19159  -0.02956   0.12759
  35        3PY         0.33120   0.16586  -0.15142  -0.00108  -0.00460
  36        3PZ        -0.00238  -0.03307  -0.04013   0.26554   0.00603
  37        4S          0.56524   3.22271   4.34004   0.68815   1.02395
  38        4PX         0.37958   2.15315   2.90223   0.44123   0.60566
  39        4PY        -1.23220  -0.69906   0.64703   0.00462  -0.00038
  40        4PZ         0.00449   0.09360   0.11633  -1.32325  -0.04058
  41        5S          1.70398  10.45546  14.30160   2.42617  -5.86050
  42        5PX         0.30366   1.90754   2.61873   0.47679  -1.55745
  43        5PY         0.94841   0.57178  -0.53019  -0.00364   0.00101
  44        5PZ        -0.01018  -0.14135  -0.18078   1.13080   0.03603
  45        6D 0        0.00026   0.00113   0.00152  -0.00039  -0.01087
  46        6D+1       -0.00023  -0.00153  -0.00214   0.02112  -0.00130
  47        6D-1        0.00365  -0.00507   0.00331  -0.00002   0.00008
  48        6D+2       -0.00040  -0.00238  -0.00309  -0.00022   0.00508
  49        6D-2        0.01935   0.00919  -0.00901  -0.00008   0.00024
  50        7D 0       -0.01703  -0.11543  -0.15314  -0.03054  -0.67038
  51        7D+1       -0.00595  -0.00679  -0.01660   0.11895  -0.06631
  52        7D-1        0.33707  -0.40439   0.25852  -0.00222   0.00620
  53        7D+2        0.04545   0.25010   0.34054   0.05446  -0.14096
  54        7D-2        0.17493  -0.00498  -0.01729  -0.00092   0.00281
  55 3   C  1S         -0.00801  -0.05067  -0.06872  -0.01207   0.00512
  56        2S         -0.01572  -0.10053  -0.13659  -0.02398   0.00411
  57        2PX        -0.00465  -0.01278  -0.01730  -0.00333  -0.03190
  58        2PY         0.04283  -0.00448  -0.00362  -0.00046  -0.00240
  59        2PZ        -0.00132  -0.00216  -0.00411   0.00636  -0.01186
  60        3S          0.13939   0.86918   1.18078   0.20367   0.20671
  61        3PX         0.02008   0.22676   0.30569   0.06931  -0.61803
  62        3PY         0.30729  -0.04114  -0.01435  -0.00568  -0.02734
  63        3PZ        -0.01167  -0.04298  -0.06079  -0.04893  -0.05169
  64        4S         -1.19165  -6.99014  -9.39869  -1.59581  -0.18719
  65        4PX         0.32078   1.83800   2.43456   0.36419  -1.17042
  66        4PY        -0.33192  -0.53598   0.42046  -0.00461  -0.10060
  67        4PZ         0.00746   0.01576   0.03390  -0.50639  -0.16000
  68        5S         -0.55162  -3.38619  -4.58565  -0.78362  -0.61113
  69        5PX         0.13493   0.75626   1.01985   0.16874   0.67898
  70        5PY         0.02739   0.21803  -0.16901   0.00190   0.02074
  71        5PZ         0.00013  -0.05721  -0.07287   0.63651   0.03789
  72        6D 0       -0.00042  -0.00286  -0.00426  -0.00007  -0.00925
  73        6D+1       -0.00006   0.00081   0.00093   0.00439  -0.00255
  74        6D-1       -0.00102   0.00172  -0.00112   0.00002  -0.00014
  75        6D+2       -0.00017  -0.00110  -0.00141  -0.00121   0.02953
  76        6D-2        0.00202  -0.00108   0.00011  -0.00013   0.00052
  77        7D 0        0.03240   0.15387   0.19191   0.01981   0.70672
  78        7D+1       -0.02051  -0.02553  -0.05796   0.48530  -0.18336
  79        7D-1       -0.11886   0.16008  -0.10619  -0.00031  -0.01709
  80        7D+2       -0.03570  -0.10009  -0.14588  -0.00410   0.80622
  81        7D-2        0.84592   0.00159  -0.08522  -0.00528  -0.01303
  82 4   H  1S         -0.00548  -0.00933  -0.01498  -0.00137   0.00879
  83        2S         -0.62999   0.53762   0.48196   0.07544   1.33677
  84        3S          0.60463  -0.07734  -0.62729  -0.00898  -0.15917
  85        4PX         0.00349  -0.06892  -0.04813  -0.01482  -0.03080
  86        4PY         0.04661  -0.05748  -0.07523  -0.01033  -0.06798
  87        4PZ        -0.03604   0.03790  -0.04527  -0.00529   0.00165
  88 5   H  1S          0.00102  -0.01301  -0.01312  -0.00119   0.00761
  89        2S          0.80002   0.23032   0.53904   0.05371   1.18343
  90        3S         -0.72609  -0.49876  -0.17219   0.00151  -0.14497
  91        4PX        -0.03002  -0.02903  -0.07745  -0.01331  -0.03244
  92        4PY         0.06446   0.05042   0.06833   0.00809   0.05710
  93        4PZ         0.03142  -0.05873   0.01775  -0.00699   0.00489
                          46        47        48        49        50
                           V         V         V         V         V
     Eigenvalues --     0.98802   1.00634   1.14363   1.24534   1.25410
   1 1   N  1S          0.04533  -0.00361   0.05998  -0.00247  -0.04168
   2        2S          0.09391  -0.00795   0.12858  -0.00495  -0.08651
   3        2PX        -0.08286   0.00318   0.07088   0.00706   0.06855
   4        2PY         0.00951   0.09698  -0.00013  -0.01174   0.00215
   5        2PZ        -0.00047  -0.00170  -0.00226  -0.00007  -0.00070
   6        3S         -0.89397   0.09142  -1.58142   0.03639   0.81048
   7        3PX         0.13431  -0.01160  -0.15315   0.00926   0.08821
   8        3PY         0.04522   0.47321  -0.00450  -0.06254   0.01328
   9        3PZ        -0.01285  -0.00622  -0.00563  -0.00019  -0.00100
  10        4S          6.37656  -0.71911  12.22391   0.21681  -0.04848
  11        4PX         0.17981  -0.07630   2.76353   0.66315   9.63876
  12        4PY        -0.07899  -0.89210  -0.00663   0.23208   0.06559
  13        4PZ         0.00179   0.00653  -0.01659  -0.00142  -0.24753
  14        5S         -1.64239  -0.37757 -16.00106   1.07715  16.27408
  15        5PX         2.51150   0.02586   8.86470  -0.15992  -3.04407
  16        5PY         0.01176  -0.11007   0.03749   0.15924  -0.01295
  17        5PZ        -0.06561   0.00269  -0.17112  -0.00067   0.05396
  18        6D 0        0.01663  -0.00233   0.03187   0.00084   0.00371
  19        6D+1        0.00210   0.00073   0.00390   0.00043  -0.00140
  20        6D-1        0.00024   0.00338  -0.00018   0.01034  -0.00061
  21        6D+2       -0.02657   0.00279  -0.04980  -0.00091  -0.00218
  22        6D-2       -0.00278  -0.03067  -0.00130   0.00553   0.00175
  23        7D 0       -0.12382   0.01549  -0.44920   0.00572   0.34659
  24        7D+1       -0.01737  -0.00114  -0.03188   0.00231  -0.01778
  25        7D-1       -0.00720  -0.05084  -0.00394   0.80608  -0.05423
  26        7D+2        0.18039  -0.02261   1.12640  -0.00339  -0.21209
  27        7D-2        0.01715   0.14890  -0.01156   0.05107   0.03689
  28 2   N  1S          0.07960  -0.00750  -0.06750   0.00109   0.02666
  29        2S          0.16186  -0.01537  -0.12486   0.00239   0.05479
  30        2PX        -0.04124   0.00098   0.08116   0.00724   0.09436
  31        2PY        -0.00300  -0.03744  -0.00279   0.01040   0.00645
  32        2PZ         0.00135   0.00139   0.00093   0.00062  -0.00697
  33        3S         -1.20090   0.11520   0.95718  -0.02819  -0.58173
  34        3PX        -0.24854   0.01824  -0.50295   0.03765   0.67342
  35        3PY        -0.00235  -0.04537  -0.00707   0.02735   0.02060
  36        3PZ         0.00276   0.00227   0.01302   0.00122  -0.02884
  37        4S          0.17045  -0.02993  -4.06618   0.50607   8.80109
  38        4PX        -0.74107   0.08689  -1.78957   0.16211   3.06275
  39        4PY         0.03112   0.36719   0.00809  -0.09482  -0.04299
  40        4PZ         0.01159  -0.00853   0.02051  -0.00897  -0.02074
  41        5S          1.42338   0.46598  20.05979  -0.82377 -13.36115
  42        5PX        -0.07059   0.14337   5.06014  -0.23898  -3.86906
  43        5PY        -0.00023   0.06864  -0.00980  -0.06478   0.01558
  44        5PZ         0.00424  -0.00278  -0.10357   0.00541   0.06878
  45        6D 0        0.00772  -0.00093   0.00669   0.00013  -0.00060
  46        6D+1        0.00040  -0.00020  -0.00015  -0.00017   0.00125
  47        6D-1       -0.00028  -0.00312   0.00005  -0.00530   0.00033
  48        6D+2       -0.01325   0.00137  -0.01967  -0.00035  -0.00080
  49        6D-2        0.00016   0.00274   0.00067  -0.00247  -0.00140
  50        7D 0        0.07141  -0.02742  -0.05270  -0.00365  -0.20984
  51        7D+1       -0.00233  -0.00786  -0.02195  -0.00772   0.02270
  52        7D-1       -0.02605  -0.30274   0.00712  -0.78172   0.04995
  53        7D+2       -0.33529   0.02750  -0.57768  -0.00273   0.00251
  54        7D-2        0.02328   0.26745   0.02119  -0.06719  -0.03972
  55 3   C  1S         -0.05198   0.00417   0.00390   0.00252   0.03646
  56        2S         -0.10220   0.00805   0.03119   0.00505   0.06799
  57        2PX        -0.09821   0.00378   0.05261   0.01806   0.24152
  58        2PY         0.00516   0.07087   0.00241  -0.01956  -0.00158
  59        2PZ        -0.00484  -0.00030  -0.01543  -0.00178  -0.00404
  60        3S          1.05692  -0.07975  -0.22949  -0.02554  -0.40819
  61        3PX         0.10118  -0.04637   1.42607   0.07574   0.85170
  62        3PY         0.06121   0.72153  -0.00603  -0.10316   0.03603
  63        3PZ        -0.03475   0.00035  -0.05718  -0.00375  -0.00118
  64        4S         -5.35484   0.50349  -9.53930  -0.75246  -8.96991
  65        4PX         2.53066  -0.41760   3.64893   0.43058   4.93645
  66        4PY         0.21990   2.90819  -0.10652  -0.78923   0.05397
  67        4PZ        -0.04767  -0.00216  -0.11312  -0.01207  -0.03044
  68        5S          0.43693  -0.06517  -1.45741  -0.10433  -1.25581
  69        5PX        -0.76314   0.08139  -0.13655   0.01361   0.16151
  70        5PY        -0.03802  -0.27772  -0.02839  -0.00913  -0.02388
  71        5PZ         0.04135  -0.00323   0.05825   0.00369  -0.00404
  72        6D 0        0.01046  -0.00140   0.03034  -0.00058  -0.01861
  73        6D+1        0.00130  -0.00049   0.00453   0.00035   0.00212
  74        6D-1        0.00058   0.00709  -0.00037  -0.01140   0.00107
  75        6D+2       -0.02947   0.00277  -0.07719   0.00017   0.01267
  76        6D-2        0.00068   0.01152  -0.00049  -0.00574  -0.00034
  77        7D 0        0.60775  -0.05789   0.72064   0.06329   0.58313
  78        7D+1       -0.01896  -0.02606  -0.01493   0.00417   0.01462
  79        7D-1        0.04353   0.52821  -0.01332  -0.21102   0.02336
  80        7D+2       -0.67495   0.01513  -0.74826  -0.07922  -1.17294
  81        7D-2        0.15676   1.78542  -0.02644  -0.25632   0.09853
  82 4   H  1S          0.01221   0.01033   0.02188  -0.01417   0.03371
  83        2S          0.15188  -2.70897   0.72714   0.55808  -0.24672
  84        3S         -0.27380   0.05087  -0.53118   0.06109  -0.00799
  85        4PX         0.00144   0.12391   0.02129  -0.03992  -0.02208
  86        4PY        -0.03033   0.12123   0.00027   0.03756   0.03529
  87        4PZ        -0.00200   0.03850  -0.00710  -0.21289   0.01956
  88 5   H  1S          0.00795  -0.01109   0.02095   0.01713   0.02527
  89        2S          0.61405   2.73247   0.62606  -0.54067   0.00444
  90        3S         -0.32512  -0.01427  -0.64417  -0.09469  -0.10188
  91        4PX        -0.01953  -0.12472   0.05044   0.02430  -0.07564
  92        4PY         0.05055   0.11295   0.00521   0.03523  -0.04389
  93        4PZ        -0.00947  -0.03932  -0.00764   0.22024  -0.01477
                          51        52        53        54        55
[...]
  71        5PZ         0.00000   0.00000   0.00965   0.00000   0.00000
  72        6D 0        0.00000   0.00000   0.00000   0.00000   0.00000
  73        6D+1        0.00000   0.00000   0.00000   0.00000   0.00000
  74        6D-1        0.00000   0.00000   0.00000   0.00000   0.00000
  75        6D+2        0.00000   0.00000   0.00000   0.00000   0.00000
  76        6D-2        0.00000   0.00000   0.00000   0.00000   0.00000
  77        7D 0        0.00000   0.00000   0.00000   0.00000   0.00000
  78        7D+1        0.00000   0.00000   0.00000   0.00000   0.00000
  79        7D-1        0.00000   0.00000   0.00000   0.00000   0.00000
  80        7D+2        0.00000   0.00000   0.00000   0.00000   0.00000
  81        7D-2        0.00000   0.00000   0.00000   0.00000   0.00000
  82 4   H  1S          0.00819   0.02991   0.00047   0.01967   0.00356
  83        2S          0.01444   0.05782   0.00104   0.05612   0.00834
  84        3S          0.00133   0.00660  -0.00011   0.00815   0.00113
  85        4PX        -0.00004   0.00218   0.00008   0.00037  -0.00008
  86        4PY         0.00200   0.00216   0.00016   0.00235   0.00039
  87        4PZ         0.00006   0.00017   0.00328   0.00012   0.00001
  88 5   H  1S          0.00948   0.02828   0.00049   0.02001   0.00409
  89        2S          0.01670   0.05507   0.00111   0.05697   0.00960
  90        3S          0.00146   0.00611  -0.00011   0.00843   0.00123
  91        4PX        -0.00010   0.00249   0.00009   0.00050  -0.00014
  92        4PY         0.00222   0.00174   0.00017   0.00224   0.00043
  93        4PZ         0.00007   0.00017   0.00328   0.00013   0.00002
                          66        67        68        69        70
  66        4PY         0.05664
  67        4PZ         0.00000   0.20996
  68        5S          0.00000   0.00000   0.00610
  69        5PX         0.00000   0.00000   0.00000   0.00069
  70        5PY         0.00527   0.00000   0.00000   0.00000   0.00117
  71        5PZ         0.00000   0.02871   0.00000   0.00000   0.00000
  72        6D 0        0.00000   0.00000   0.00000   0.00000   0.00000
  73        6D+1        0.00000   0.00000   0.00000   0.00000   0.00000
  74        6D-1        0.00000   0.00000   0.00000   0.00000   0.00000
  75        6D+2        0.00000   0.00000   0.00000   0.00000   0.00000
  76        6D-2        0.00000   0.00000   0.00000   0.00000   0.00000
  77        7D 0        0.00000   0.00000   0.00000   0.00000   0.00000
  78        7D+1        0.00000   0.00000   0.00000   0.00000   0.00000
  79        7D-1        0.00000   0.00000   0.00000   0.00000   0.00000
  80        7D+2        0.00000   0.00000   0.00000   0.00000   0.00000
  81        7D-2        0.00000   0.00000   0.00000   0.00000   0.00000
  82 4   H  1S          0.01681   0.00031   0.00161   0.00004   0.00093
  83        2S          0.04356   0.00103   0.00532   0.00011   0.00329
  84        3S          0.00945  -0.00024   0.00083   0.00009   0.00121
  85        4PX         0.00057   0.00003   0.00001   0.00001   0.00001
  86        4PY        -0.00034   0.00005   0.00007   0.00000  -0.00007
  87        4PZ         0.00004   0.00339   0.00001   0.00000   0.00000
  88 5   H  1S          0.01595   0.00033   0.00156   0.00006   0.00089
  89        2S          0.04137   0.00111   0.00510   0.00019   0.00317
  90        3S          0.00884  -0.00024   0.00085   0.00010   0.00113
  91        4PX         0.00064   0.00004   0.00002   0.00001   0.00001
  92        4PY        -0.00037   0.00005   0.00006   0.00000  -0.00006
  93        4PZ         0.00004   0.00338   0.00001   0.00000   0.00000
                          71        72        73        74        75
  71        5PZ         0.00929
  72        6D 0        0.00000   0.00028
  73        6D+1        0.00000   0.00000   0.00044
  74        6D-1        0.00000   0.00000   0.00000   0.00003
  75        6D+2        0.00000   0.00000   0.00000   0.00000   0.00092
  76        6D-2        0.00000   0.00000   0.00000   0.00000   0.00000
  77        7D 0        0.00000   0.00009   0.00000   0.00000   0.00000
  78        7D+1        0.00000   0.00000   0.00031   0.00000   0.00000
  79        7D-1        0.00000   0.00000   0.00000   0.00001   0.00000
  80        7D+2        0.00000   0.00000   0.00000   0.00000   0.00024
  81        7D-2        0.00000   0.00000   0.00000   0.00000   0.00000
  82 4   H  1S          0.00003   0.00012   0.00001   0.00005   0.00033
  83        2S          0.00012   0.00008   0.00000   0.00004   0.00029
  84        3S         -0.00004   0.00000   0.00000   0.00000   0.00001
  85        4PX         0.00000   0.00001   0.00000   0.00000   0.00000
  86        4PY         0.00000   0.00002   0.00000   0.00001   0.00001
  87        4PZ         0.00030   0.00000  -0.00004  -0.00001   0.00000
  88 5   H  1S          0.00003   0.00011   0.00001   0.00005   0.00025
  89        2S          0.00013   0.00008   0.00001   0.00004   0.00021
  90        3S         -0.00004   0.00000   0.00000   0.00000   0.00001
  91        4PX         0.00000   0.00001   0.00000   0.00001   0.00000
  92        4PY         0.00000   0.00002   0.00000   0.00001  -0.00001
  93        4PZ         0.00030   0.00000  -0.00004  -0.00001   0.00000
                          76        77        78        79        80
  76        6D-2        0.00048
  77        7D 0        0.00000   0.00022
  78        7D+1        0.00000   0.00000   0.00129
  79        7D-1        0.00000   0.00000   0.00000   0.00002
  80        7D+2        0.00000   0.00000   0.00000   0.00000   0.00046
  81        7D-2        0.00050   0.00000   0.00000   0.00000   0.00000
  82 4   H  1S          0.00042   0.00008   0.00004   0.00008   0.00013
  83        2S          0.00038   0.00006   0.00004   0.00011   0.00016
  84        3S          0.00002   0.00000   0.00000   0.00001   0.00002
  85        4PX        -0.00001   0.00000   0.00000   0.00000  -0.00004
  86        4PY         0.00004   0.00000   0.00000   0.00000  -0.00002
  87        4PZ         0.00000   0.00003  -0.00007  -0.00001   0.00000
  88 5   H  1S          0.00048   0.00006   0.00004   0.00008   0.00012
  89        2S          0.00042   0.00002   0.00004   0.00010   0.00015
  90        3S          0.00003   0.00000   0.00001   0.00001   0.00002
  91        4PX         0.00000   0.00000   0.00000   0.00000  -0.00003
  92        4PY         0.00004   0.00000   0.00000   0.00000  -0.00002
  93        4PZ         0.00000   0.00003  -0.00008  -0.00001   0.00000
                          81        82        83        84        85
  81        7D-2        0.00432
  82 4   H  1S         -0.00012   0.07890
  83        2S         -0.00031   0.08197   0.17178
  84        3S          0.00019   0.00919   0.02911   0.01125
  85        4PX        -0.00005   0.00000   0.00000   0.00000   0.00057
  86        4PY        -0.00003   0.00000   0.00000   0.00000   0.00000
  87        4PZ        -0.00001   0.00000   0.00000   0.00000   0.00000
  88 5   H  1S         -0.00015  -0.00001  -0.00073  -0.00160   0.00000
  89        2S         -0.00050  -0.00074  -0.00633  -0.00654   0.00001
  90        3S          0.00021  -0.00160  -0.00660  -0.00445   0.00001
  91        4PX        -0.00003   0.00000  -0.00001  -0.00001   0.00000
  92        4PY        -0.00003   0.00001   0.00009  -0.00009   0.00000
  93        4PZ        -0.00001   0.00000   0.00000   0.00000   0.00000
                          86        87        88        89        90
  86        4PY         0.00144
  87        4PZ         0.00000   0.00075
  88 5   H  1S          0.00001   0.00000   0.07864
  89        2S          0.00006   0.00000   0.08163   0.17113
  90        3S         -0.00012   0.00000   0.00880   0.02760   0.01081
  91        4PX         0.00000   0.00000   0.00000   0.00000   0.00000
  92        4PY         0.00004   0.00000   0.00000   0.00000   0.00000
  93        4PZ         0.00000   0.00001   0.00000   0.00000   0.00000
                          91        92        93
  91        4PX         0.00065
  92        4PY         0.00000   0.00138
  93        4PZ         0.00000   0.00000   0.00075
     Gross orbital populations:
                           1
   1 1   N  1S          1.09523
   2        2S          0.89615
   3        2PX         0.28043
   4        2PY         0.24062
   5        2PZ         0.24414
   6        3S          0.90244
   7        3PX         0.62152
   8        3PY         0.55481
   9        3PZ         0.57234
  10        4S          0.46643
  11        4PX         0.04456
  12        4PY         0.35471
  13        4PZ         0.38013
  14        5S         -0.09223
  15        5PX        -0.01485
  16        5PY         0.00771
  17        5PZ        -0.00756
  18        6D 0        0.00089
  19        6D+1        0.00515
  20        6D-1        0.00000
  21        6D+2        0.00248
  22        6D-2        0.00213
  23        7D 0        0.00222
  24        7D+1        0.08657
  25        7D-1        0.00001
  26        7D+2        0.00462
  27        7D-2        0.03673
  28 2   N  1S          1.09588
  29        2S          0.89539
  30        2PX         0.24636
  31        2PY         0.15561
  32        2PZ         0.28934
  33        3S          0.97922
  34        3PX         0.54396
  35        3PY         0.36699
  36        3PZ         0.62233
  37        4S          0.96442
  38        4PX         0.19941
  39        4PY         0.27485
  40        4PZ         0.46305
  41        5S         -0.04417
  42        5PX         0.05283
  43        5PY         0.00439
  44        5PZ         0.02970
  45        6D 0        0.00140
  46        6D+1        0.00208
  47        6D-1        0.00000
  48        6D+2        0.00415
  49        6D-2        0.00242
  50        7D 0        0.00335
  51        7D+1        0.02219
  52        7D-1        0.00001
  53        7D+2        0.01016
  54        7D-2        0.02361
  55 3   C  1S          1.10353
  56        2S          0.88510
  57        2PX         0.19978
  58        2PY         0.23254
  59        2PZ         0.22695
  60        3S          0.73008
  61        3PX         0.43790
  62        3PY         0.50994
  63        3PZ         0.52364
  64        4S          0.49599
  65        4PX         0.12621
  66        4PY         0.25464
  67        4PZ         0.44942
  68        5S          0.06406
  69        5PX         0.01436
  70        5PY         0.01821
  71        5PZ         0.04083
  72        6D 0        0.00220
  73        6D+1        0.00314
  74        6D-1        0.00024
  75        6D+2        0.00746
  76        6D-2        0.00445
  77        7D 0        0.00209
  78        7D+1        0.01813
  79        7D-1        0.00039
  80        7D+2        0.00871
  81        7D-2        0.03483
  82 4   H  1S          0.27003
  83        2S          0.50225
  84        3S          0.05451
  85        4PX         0.00550
  86        4PY         0.01438
  87        4PZ         0.00927
  88 5   H  1S          0.26928
  89        2S          0.50214
  90        3S          0.05208
  91        4PX         0.00642
  92        4PY         0.01379
  93        4PZ         0.00924
          Condensed to atoms (all electrons):
               1          2          3          4          5
     1  N    5.581347   0.664451   0.496920  -0.028812  -0.026538
     2  N    0.664451   6.663139  -0.090412  -0.014837  -0.013423
     3  C    0.496920  -0.090412   5.143293   0.422941   0.422089
     4  H   -0.028812  -0.014837   0.422941   0.505220  -0.028580
     5  H   -0.026538  -0.013423   0.422089  -0.028580   0.499406
 Mulliken charges:
               1
     1  N    0.312632
     2  N   -0.208918
     3  C   -0.394830
     4  H    0.144069
     5  H    0.147047
 Sum of Mulliken charges =   0.00000
 Mulliken charges with hydrogens summed into heavy atoms:
               1
     1  N    0.312632
     2  N   -0.208918
     3  C   -0.103715
 Electronic spatial extent (au):  <R**2>=            139.8453
 Charge=              0.0000 electrons
 Dipole moment (field-independent basis, Debye):
    X=              2.1323    Y=             -0.0025    Z=              0.2867  Tot=              2.1515
 Quadrupole moment (field-independent basis, Debye-Ang):
   XX=            -18.4639   YY=            -15.7945   ZZ=            -19.3469
   XY=             -0.0413   XZ=              0.5765   YZ=              0.0000
 Traceless Quadrupole moment (field-independent basis, Debye-Ang):
   XX=             -0.5954   YY=              2.0739   ZZ=             -1.4785
   XY=             -0.0413   XZ=              0.5765   YZ=              0.0000
 Octapole moment (field-independent basis, Debye-Ang**2):
  XXX=              7.2137  YYY=              0.0612  ZZZ=              0.4559  XYY=              1.6551
  XXY=             -0.1670  XXZ=              1.0922  XZZ=             -1.2837  YZZ=             -0.0018
  YYZ=              0.3783  XYZ=             -0.0055
 Hexadecapole moment (field-independent basis, Debye-Ang**3):
 XXXX=           -147.5372 YYYY=            -20.8786 ZZZZ=            -21.2624 XXXY=             -0.4445
 XXXZ=              2.1958 YYYX=              0.0421 YYYZ=              0.0083 ZZZX=              0.8169
 ZZZY=              0.0006 XXYY=            -23.6008 XXZZ=            -31.8260 YYZZ=             -7.4147
 XXYZ=             -0.0283 YYXZ=              0.6647 ZZXY=             -0.0079
 N-N= 5.986275252946D+01 E-N=-4.662242205513D+02  KE= 1.478519684525D+02
 Orbital energies and kinetic energies (alpha):
                                 1                 2
   1         O               -14.498438         22.065022
   2         O               -14.431888         22.071155
   3         O               -10.243170         15.961932
   4         O                -1.090380          2.327158
   5         O                -0.870325          2.058662
   6         O                -0.589393          1.503341
   7         O                -0.528853          1.242745
   8         O                -0.474656          1.590020
   9         O                -0.462868          2.121502
  10         O                -0.394840          1.486665
  11         O                -0.244365          1.497781
  12         V                -0.073288          1.936777
  13         V                -0.010565          1.575982
  14         V                 0.011507          0.310999
  15         V                 0.050668          0.236423
  16         V                 0.051169          0.257186
  17         V                 0.079744          0.628959
  18         V                 0.108205          0.414966
  19         V                 0.138347          0.427895
  20         V                 0.145582          0.555793
  21         V                 0.150339          0.513060
  22         V                 0.188489          1.012530
  23         V                 0.214814          0.472973
  24         V                 0.220484          0.477323
  25         V                 0.225281          0.461172
  26         V                 0.227940          0.826988
  27         V                 0.256402          1.793393
  28         V                 0.298620          0.765053
  29         V                 0.383092          1.304392
  30         V                 0.498258          1.137732
  31         V                 0.510308          1.391438
  32         V                 0.552607          1.551055
  33         V                 0.569439          1.401219
  34         V                 0.644175          1.921613
  35         V                 0.670118          1.507375
  36         V                 0.754295          1.513929
  37         V                 0.764130          2.085805
  38         V                 0.771262          1.916773
  39         V                 0.780098          1.910897
  40         V                 0.800555          1.640430
  41         V                 0.859957          1.693918
  42         V                 0.866735          2.045512
  43         V                 0.867788          2.355954
  44         V                 0.874888          1.890032
  45         V                 0.962958          1.685912
  46         V                 0.988017          2.877519
  47         V                 1.006343          1.751644
  48         V                 1.143630          2.682405
  49         V                 1.245342          1.913113
  50         V                 1.254096          2.719825
  51         V                 1.269734          2.161517
  52         V                 1.293717          2.565866
  53         V                 1.355259          2.227936
  54         V                 1.396433          2.201336
  55         V                 1.678174          2.553097
  56         V                 1.689783          2.360016
  57         V                 1.801903          2.859746
  58         V                 1.875704          2.569473
  59         V                 1.942081          3.543952
  60         V                 2.106101          3.485865
  61         V                 2.121500          3.402546
  62         V                 2.323041          3.653616
  63         V                 2.346023          3.599561
  64         V                 2.563792          4.505420
  65         V                 2.641592          4.027985
  66         V                 2.809764          5.827594
  67         V                 2.865452          5.082140
  68         V                 3.179416          5.525325
  69         V                 3.290691          5.717214
  70         V                 3.387790          5.795646
  71         V                 3.441360          6.326615
  72         V                 3.546807          6.055801
  73         V                 3.812975          8.340367
  74         V                 3.855440          8.654752
  75         V                 3.967322          8.923048
  76         V                 3.972255          8.885247
  77         V                 3.978630          7.178397
  78         V                 4.116835          6.212871
  79         V                 4.417019          9.011649
  80         V                 4.660102          7.140764
  81         V                 4.661749          7.279804
  82         V                 4.688487          7.826420
  83         V                 4.795919          7.261858
  84         V                 4.807162          7.311668
  85         V                 4.857604          7.308663
  86         V                 4.917832          7.375354
  87         V                 5.131398          7.694872
  88         V                 5.223373          7.782134
  89         V                 5.270118          9.278545
  90         V                 5.877410          8.982752
  91         V                24.234701         60.528842
  92         V                35.416110         89.057657
  93         V                35.816536         88.976685
 Total kinetic energy from orbitals= 1.478519684525D+02
 1|1|UNPC-DESKTOP-KC5UJLK|SP|RAPFD|6-311+G(2d,p)|C1H2N2|23122|05-Feb-20
 22|0||# apfd/6-311+g(2d,p) pop=full geom=connectivity int=ultrafine||E
 nergy Calculation(GC)||0,1|N,0,-1.75309684,0.201177,-1.10635431|N,0,-2
 .32427597,0.41287716,-2.15763584|C,0,-1.15199658,-0.02161901,0.|H,0,-0
 .0840626,0.04564462,0.00333325|H,0,-1.6891043,0.01309349,0.9248399||Ve
 rsion=IA32W-G09RevD.01|State=1-A|HF=-148.6453865|RMSD=4.835e-009|Dipol
 e=0.4014295,-0.0197054,0.7449414|Quadrupole=1.0903553,-1.2146946,0.124
 3394,0.1861173,-0.7999179,0.2470664|PG=C01 [X(C1H2N2)]||@


 A politician is a person who can make waves and then
 make you think he's the only one who can save the ship.
 -- Ivern Ball
 Job cpu time:       0 days  0 hours  0 minutes 16.0 seconds.
 File lengths (MBytes):  RWF=      5 Int=      0 D2E=      0 Chk=      1 Scr=      1
 Normal termination of Gaussian 09 at Sat Feb 05 16:15:31 2022.
