 Entering Link 1 = C:\G09W\l1.exe PID=      6528.
  
 Copyright (c) 1988,1990,1992,1993,1995,1998,2003,2009,2013,
            Gaussian, Inc.  All Rights Reserved.
  
 This is part of the Gaussian(R) 09 program.  It is based on
 the Gaussian(R) 03 system (copyright 2003, Gaussian, Inc.),
 the Gaussian(R) 98 system (copyright 1998, Gaussian, Inc.),
 the Gaussian(R) 94 system (copyright 1995, Gaussian, Inc.),
 the Gaussian 92(TM) system (copyright 1992, Gaussian, Inc.),
 the Gaussian 90(TM) system (copyright 1990, Gaussian, Inc.),
 the Gaussian 88(TM) system (copyright 1988, Gaussian, Inc.),
 the Gaussian 86(TM) system (copyright 1986, Carnegie Mellon
 University), and the Gaussian 82(TM) system (copyright 1983,
 Carnegie Mellon University). Gaussian is a federally registered
 trademark of Gaussian, Inc.
  
 This software contains proprietary and confidential information,
 including trade secrets, belonging to Gaussian, Inc.
  
 This software is provided under written license and may be
 used, copied, transmitted, or stored only in accord with that
 written license.
  
 The following legend is applicable only to US Government
 contracts under FAR:
  
                    RESTRICTED RIGHTS LEGEND
  
 Use, reproduction and disclosure by the US Government is
 subject to restrictions as set forth in subparagraphs (a)
 and (c) of the Commercial Computer Software - Restricted
 Rights clause in FAR 52.227-19.
  
 Gaussian, Inc.
 340 Quinnipiac St., Bldg. 40, Wallingford CT 06492
  
  
 ---------------------------------------------------------------
 Warning -- This program may not be used in any manner that
 competes with the business of Gaussian, Inc. or will provide
 assistance to any competitor of Gaussian, Inc.  The licensee
 of this program is prohibited from giving any competitor of
 Gaussian, Inc. access to this program.  By using this program,
 the user acknowledges that Gaussian, Inc. is engaged in the
 business of creating and licensing software in the field of
 computational chemistry and represents and warrants to the
 licensee that it is not a competitor of Gaussian, Inc. and that
 it will not use this program in any manner prohibited above.
 ---------------------------------------------------------------
  

 Cite this work as:
 Gaussian 09, Revision D.01,
 M. J. Frisch, G. W. Trucks, H. B. Schlegel, G. E. Scuseria, 
 M. A. Robb, J. R. Cheeseman, G. Scalmani, V. Barone, B. Mennucci, 
 G. A. Petersson, H. Nakatsuji, M. Caricato, X. Li, H. P. Hratchian, 
 A. F. Izmaylov, J. Bloino, G. Zheng, J. L. Sonnenberg, M. Hada, 
 M. Ehara, K. Toyota, R. Fukuda, J. Hasegawa, M. Ishida, T. Nakajima, 
 Y. Honda, O. Kitao, H. Nakai, T. Vreven, J. A. Montgomery, Jr., 
 J. E. Peralta, F. Ogliaro, M. Bearpark, J. J. Heyd, E. Brothers, 
 K. N. Kudin, V. N. Staroverov, T. Keith, R. Kobayashi, J. Normand, 
 K. Raghavachari, A. Rendell, J. C. Burant, S. S. Iyengar, J. Tomasi, 
 M. Cossi, N. Rega, J. M. Millam, M. Klene, J. E. Knox, J. B. Cross, 
 V. Bakken, C. Adamo, J. Jaramillo, R. Gomperts, R. E. Stratmann, 
 O. Yazyev, A. J. Austin, R. Cammi, C. Pomelli, J. W. Ochterski, 
 R. L. Martin, K. Morokuma, V. G. Zakrzewski, G. A. Voth, 
 P. Salvador, J. J. Dannenberg, S. Dapprich, A. D. Daniels, 
 O. Farkas, J. B. Foresman, J. V. Ortiz, J. Cioslowski, 
 and D. J. Fox, Gaussian, Inc., Wallingford CT, 2013.
 
 ******************************************
 Gaussian 09:  IA32W-G09RevD.01 24-Apr-2013
                05-Feb-2022 
 ******************************************
 %chk=D:\mindmap\gaussian\check\energy_gc.chk
 %nprocshared=4
 Will use up to    4 processors via shared memory.
 %mem=1GB
 -------------------------------------------------------------
 # apfd/6-311+g(2d,p) geom=connectivity pop=full int=ultrafine
 -------------------------------------------------------------
 1/38=1,57=2/1;
 2/12=2,17=6,18=5,40=1/2;
 3/5=4,6=6,7=112,11=2,16=1,25=1,30=1,74=-44,75=-5/1,2,3;
 4//1;
 5/5=2,38=5/2;
 6/7=3,28=1/1;
 99/5=1,9=1/99;
 ----------------------
 Energy Calculation(GC)
 ----------------------
 Symbolic Z-matrix:
 Charge =  0 Multiplicity = 1
 H                    -0.0693   -1.68318   0.92572 
 H                    -0.0693   -1.68318  -0.92572 
 N                     0.00755   0.11934   0. 
 N                    -0.00801   1.35124   0. 
 C                     0.02364  -1.15461   0. 
 
                          Input orientation:                          
 ---------------------------------------------------------------------
 Center     Atomic      Atomic             Coordinates (Angstroms)
 Number     Number       Type             X           Y           Z
 ---------------------------------------------------------------------
      1          1           0       -0.069303   -1.683184    0.925715
      2          1           0       -0.069303   -1.683184   -0.925715
      3          7           0        0.007549    0.119336    0.000000
      4          7           0       -0.008015    1.351237    0.000000
      5          6           0        0.023644   -1.154607    0.000000
 ---------------------------------------------------------------------
                    Distance matrix (angstroms):
                    1          2          3          4          5
     1  H    0.000000
     2  H    1.851431   0.000000
     3  N    2.027790   2.027790   0.000000
     4  N    3.173078   3.173078   1.232000   0.000000
     5  C    1.070038   1.070038   1.274045   2.506045   0.000000
 Stoichiometry    CH2N2
 Framework group  CS[SG(CN2),X(H2)]
 Deg. of freedom     6
 Full point group                 CS      NOp   2
 Largest Abelian subgroup         CS      NOp   2
 Largest concise Abelian subgroup CS      NOp   2
                         Standard orientation:                         
 ---------------------------------------------------------------------
 Center     Atomic      Atomic             Coordinates (Angstroms)
 Number     Number       Type             X           Y           Z
 ---------------------------------------------------------------------
      1          1           0        0.037098   -1.684202    0.925715
      2          1           0        0.037098   -1.684202   -0.925715
      3          7           0        0.000000    0.119574    0.000000
      4          7           0       -0.093305    1.348036    0.000000
      5          6           0        0.096490   -1.150811    0.000000
 ---------------------------------------------------------------------
 Rotational constants (GHZ):    289.8312662     10.7012322     10.3271008
 Standard basis: 6-311+G(2d,p) (5D, 7F)
 There are    69 symmetry adapted cartesian basis functions of A'  symmetry.
 There are    30 symmetry adapted cartesian basis functions of A"  symmetry.
 There are    63 symmetry adapted basis functions of A'  symmetry.
 There are    30 symmetry adapted basis functions of A"  symmetry.
    93 basis functions,   142 primitive gaussians,    99 cartesian basis functions
    11 alpha electrons       11 beta electrons
       nuclear repulsion energy        59.5689179930 Hartrees.
 NAtoms=    5 NActive=    5 NUniq=    4 SFac= 1.56D+00 NAtFMM=   60 NAOKFM=F Big=F
 Integral buffers will be    262144 words long.
 Raffenetti 2 integral format.
 Two-electron integral symmetry is turned on.
 R6APFD:  NTU= -4 IXU= 1 FactS= 1.050
 Nuclear repulsion after empirical dispersion term =       59.5686875850 Hartrees.
 One-electron integrals computed using PRISM.
 NBasis=    93 RedAO= T EigKep=  1.38D-04  NBF=    63    30
 NBsUse=    93 1.00D-06 EigRej= -1.00D+00 NBFU=    63    30
 ExpMin= 4.38D-02 ExpMax= 6.29D+03 ExpMxC= 9.49D+02 IAcc=3 IRadAn=         5 AccDes= 0.00D+00
 Harris functional with IExCor= 3731 and IRadAn=       5 diagonalized for initial guess.
 HarFok:  IExCor= 3731 AccDes= 0.00D+00 IRadAn=         5 IDoV= 1 UseB2=F ITyADJ=14
 ICtDFT=  3500011 ScaDFX=  1.000000  1.000000  1.000000  1.000000
 FoFCou: FMM=F IPFlag=           0 FMFlag=      100000 FMFlg1=           0
         NFxFlg=           0 DoJE=T BraDBF=F KetDBF=T FulRan=T
         wScrn=  0.000000 ICntrl=     500 IOpCl=  0 I1Cent=   200000004 NGrid=           0
         NMat0=    1 NMatS0=      1 NMatT0=    0 NMatD0=    1 NMtDS0=    0 NMtDT0=    0
 Petite list used in FoFCou.
 Initial guess orbital symmetries:
       Occupied  (A') (A') (A') (A') (A') (A') (A") (A') (A') (A")
                 (A')
       Virtual   (A") (A') (A') (A") (A') (A') (A') (A") (A') (A')
                 (A') (A") (A') (A') (A") (A') (A') (A') (A") (A')
                 (A') (A") (A') (A") (A') (A') (A") (A') (A') (A')
                 (A") (A') (A") (A') (A") (A') (A') (A') (A") (A")
                 (A') (A') (A') (A') (A") (A') (A") (A') (A") (A')
                 (A") (A') (A') (A") (A') (A') (A") (A") (A') (A')
                 (A') (A') (A") (A') (A') (A") (A") (A') (A") (A')
                 (A') (A") (A') (A') (A") (A') (A") (A') (A') (A')
                 (A') (A')
 The electronic state of the initial guess is 1-A'.
 Keep R1 ints in memory in symmetry-blocked form, NReq=14475237.
 Requested convergence on RMS density matrix=1.00D-08 within 128 cycles.
 Requested convergence on MAX density matrix=1.00D-06.
 Requested convergence on             energy=1.00D-06.
 No special actions if energy rises.
 SCF Done:  E(RAPFD) =  -148.641118410     A.U. after   12 cycles
            NFock= 12  Conv=0.48D-08     -V/T= 2.0056

 **********************************************************************

            Population analysis using the SCF density.

 **********************************************************************

 Orbital symmetries:
       Occupied  (A') (A') (A') (A') (A') (A') (A") (A') (A') (A")
                 (A')
       Virtual   (A") (A') (A') (A') (A") (A') (A') (A") (A') (A')
                 (A') (A") (A') (A') (A") (A') (A') (A') (A") (A')
                 (A') (A") (A') (A") (A') (A') (A") (A') (A') (A")
                 (A') (A") (A') (A') (A') (A") (A') (A") (A') (A")
                 (A') (A') (A') (A") (A') (A') (A") (A') (A") (A')
                 (A") (A') (A') (A") (A') (A') (A") (A") (A') (A')
                 (A') (A') (A") (A") (A') (A') (A") (A') (A") (A')
                 (A') (A") (A') (A') (A") (A') (A") (A') (A') (A')
                 (A') (A')
 The electronic state is 1-A'.
 Alpha  occ. eigenvalues --  -14.49743 -14.43256 -10.24552  -1.08093  -0.86934
 Alpha  occ. eigenvalues --   -0.59206  -0.52816  -0.47020  -0.46216  -0.39094
 Alpha  occ. eigenvalues --   -0.24478
 Alpha virt. eigenvalues --   -0.07700  -0.01182   0.01107   0.05023   0.05048
 Alpha virt. eigenvalues --    0.07948   0.10808   0.13910   0.14454   0.14982
 Alpha virt. eigenvalues --    0.18805   0.21470   0.22065   0.22462   0.23022
 Alpha virt. eigenvalues --    0.25313   0.29734   0.37766   0.50436   0.50929
 Alpha virt. eigenvalues --    0.54886   0.56409   0.64506   0.66837   0.75633
 Alpha virt. eigenvalues --    0.76282   0.77291   0.78295   0.79775   0.86062
 Alpha virt. eigenvalues --    0.86250   0.87195   0.87351   0.96553   0.98933
 Alpha virt. eigenvalues --    1.00618   1.14052   1.23668   1.25369   1.26328
 Alpha virt. eigenvalues --    1.29383   1.35132   1.39626   1.67745   1.68701
 Alpha virt. eigenvalues --    1.79746   1.88422   1.93441   2.09526   2.11613
 Alpha virt. eigenvalues --    2.33431   2.34413   2.55901   2.64346   2.80946
 Alpha virt. eigenvalues --    2.86044   3.19008   3.27247   3.38577   3.43705
 Alpha virt. eigenvalues --    3.54168   3.81509   3.85516   3.95938   3.96430
 Alpha virt. eigenvalues --    3.97548   4.11726   4.41157   4.66291   4.66870
 Alpha virt. eigenvalues --    4.71529   4.79329   4.80853   4.87459   4.92496
 Alpha virt. eigenvalues --    5.11613   5.22571   5.29113   5.82041  24.23708
 Alpha virt. eigenvalues --   35.42977  35.77191
     Molecular Orbital Coefficients:
                           1         2         3         4         5
                           O         O         O         O         O
     Eigenvalues --   -14.49743 -14.43256 -10.24552  -1.08093  -0.86934
   1 1   H  1S         -0.00009   0.00003   0.00025   0.00994   0.03958
   2        2S         -0.00200  -0.00024  -0.00494   0.01486   0.04607
   3        3S          0.00096   0.00034   0.00202  -0.00540  -0.00417
   4        4PX        -0.00004   0.00001  -0.00013   0.00002   0.00011
   5        4PY        -0.00051  -0.00002  -0.00126   0.00259   0.00571
   6        4PZ         0.00033  -0.00019   0.00159  -0.00176  -0.00710
   7 2   H  1S         -0.00009   0.00003   0.00025   0.00994   0.03958
   8        2S         -0.00200  -0.00024  -0.00494   0.01486   0.04607
   9        3S          0.00096   0.00034   0.00202  -0.00540  -0.00417
  10        4PX        -0.00004   0.00001  -0.00013   0.00002   0.00011
  11        4PY        -0.00051  -0.00002  -0.00126   0.00259   0.00571
  12        4PZ        -0.00033   0.00019  -0.00159   0.00176   0.00710
  13 3   N  1S          0.55762  -0.00260  -0.00010  -0.10202  -0.03274
  14        2S          0.46575  -0.00213  -0.00008  -0.16163  -0.05250
  15        2PX         0.00004  -0.00003   0.00004  -0.00319   0.01277
  16        2PY         0.00002   0.00041  -0.00055   0.04246  -0.17618
  17        2PZ         0.00000   0.00000   0.00000   0.00000   0.00000
  18        3S          0.01427   0.00181   0.00296   0.44847   0.14960
  19        3PX        -0.00003   0.00007  -0.00012  -0.00442   0.01851
  20        3PY         0.00013  -0.00098   0.00157   0.06122  -0.25454
  21        3PZ         0.00000   0.00000   0.00000   0.00000   0.00000
  22        4S          0.00392  -0.01026  -0.02100   0.23685   0.11511
  23        4PX        -0.00038  -0.00072  -0.00078   0.00074   0.00374
  24        4PY         0.00554   0.00973   0.01041  -0.01176  -0.05351
  25        4PZ         0.00000   0.00000   0.00000   0.00000   0.00000
  26        5S          0.01664  -0.00046   0.01167  -0.14788  -0.12194
  27        5PX        -0.00057  -0.00024  -0.00008   0.00322   0.00097
  28        5PY         0.00755   0.00319   0.00142  -0.04321  -0.01127
  29        5PZ         0.00000   0.00000   0.00000   0.00000   0.00000
  30        6D 0       -0.00019  -0.00013  -0.00014  -0.00725  -0.00086
  31        6D+1        0.00000   0.00000   0.00000   0.00000   0.00000
  32        6D-1        0.00000   0.00000   0.00000   0.00000   0.00000
  33        6D+2       -0.00048  -0.00026  -0.00041  -0.01284  -0.00158
  34        6D-2       -0.00007  -0.00004  -0.00006  -0.00194  -0.00023
  35        7D 0       -0.00167   0.00248   0.00311  -0.00659   0.00073
  36        7D+1        0.00000   0.00000   0.00000   0.00000   0.00000
  37        7D-1        0.00000   0.00000   0.00000   0.00000   0.00000
  38        7D+2       -0.00229   0.00434   0.00636  -0.01668   0.00080
  39        7D-2       -0.00038   0.00066   0.00093  -0.00253   0.00006
  40 4   N  1S          0.00255   0.55767   0.00001  -0.07031   0.06262
  41        2S          0.00228   0.46592  -0.00025  -0.11080   0.09956
  42        2PX         0.00004   0.00013  -0.00001   0.00607  -0.00383
  43        2PY        -0.00060  -0.00167   0.00014  -0.07994   0.04967
  44        2PZ         0.00000   0.00000   0.00000   0.00000   0.00000
  45        3S         -0.00017   0.01514   0.00292   0.30354  -0.28472
  46        3PX        -0.00019   0.00017   0.00019   0.00882  -0.00561
  47        3PY         0.00253  -0.00224  -0.00246  -0.11572   0.07287
  48        3PZ         0.00000   0.00000   0.00000   0.00000   0.00000
  49        4S         -0.00974  -0.01104  -0.00098   0.18372  -0.20919
  50        4PX        -0.00039  -0.00024  -0.00001   0.00364  -0.00285
  51        4PY         0.00512   0.00312   0.00047  -0.04786   0.03805
  52        4PZ         0.00000   0.00000   0.00000   0.00000   0.00000
  53        5S         -0.01559   0.00135  -0.00694   0.09288   0.09121
  54        5PX        -0.00026   0.00010  -0.00020   0.00142   0.00251
  55        5PY         0.00311  -0.00139   0.00198  -0.01713  -0.03244
  56        5PZ         0.00000   0.00000   0.00000   0.00000   0.00000
  57        6D 0        0.00003  -0.00029  -0.00013  -0.00559   0.00316
  58        6D+1        0.00000   0.00000   0.00000   0.00000   0.00000
  59        6D-1        0.00000   0.00000   0.00000   0.00000   0.00000
  60        6D+2        0.00007  -0.00056  -0.00019  -0.01073   0.00642
  61        6D-2        0.00001  -0.00009  -0.00003  -0.00165   0.00101
  62        7D 0        0.00118   0.00000  -0.00006  -0.00771   0.00228
  63        7D+1        0.00000   0.00000   0.00000   0.00000   0.00000
  64        7D-1        0.00000   0.00000   0.00000   0.00000   0.00000
  65        7D+2        0.00189   0.00007  -0.00032  -0.01612   0.00648
  66        7D-2        0.00028   0.00001  -0.00007  -0.00251   0.00101
  67 5   C  1S         -0.00002   0.00005   0.56321  -0.03197  -0.08120
  68        2S          0.00018  -0.00029   0.46289  -0.04901  -0.12632
  69        2PX        -0.00001   0.00001  -0.00011  -0.00368  -0.00828
  70        2PY         0.00045  -0.00018   0.00077   0.04099   0.07242
  71        2PZ         0.00000   0.00000   0.00000   0.00000   0.00000
  72        3S         -0.00093   0.00350   0.02245   0.11602   0.33130
  73        3PX         0.00009  -0.00029  -0.00082  -0.00452  -0.01149
  74        3PY        -0.00326   0.00401   0.00490   0.05199   0.10202
  75        3PZ         0.00000   0.00000   0.00000   0.00000   0.00000
  76        4S          0.00367   0.01201   0.01028   0.01906   0.17121
  77        4PX        -0.00009  -0.00037  -0.00055  -0.00033  -0.00348
  78        4PY        -0.00019   0.00456   0.00476   0.00505   0.02762
  79        4PZ         0.00000   0.00000   0.00000   0.00000   0.00000
  80        5S         -0.00149  -0.00093  -0.00438   0.03517   0.02008
  81        5PX         0.00014   0.00012   0.00022  -0.00170  -0.00055
  82        5PY        -0.00101  -0.00126  -0.00124   0.01773   0.00181
  83        5PZ         0.00000   0.00000   0.00000   0.00000   0.00000
  84        6D 0        0.00038  -0.00024   0.00001  -0.00352  -0.00470
  85        6D+1        0.00000   0.00000   0.00000   0.00000   0.00000
  86        6D-1        0.00000   0.00000   0.00000   0.00000   0.00000
  87        6D+2        0.00049  -0.00028  -0.00138  -0.00793  -0.01453
  88        6D-2        0.00009  -0.00005  -0.00012  -0.00118  -0.00201
  89        7D 0        0.00187  -0.00026   0.00123  -0.00686  -0.00403
  90        7D+1        0.00000   0.00000   0.00000   0.00000   0.00000
  91        7D-1        0.00000   0.00000   0.00000   0.00000   0.00000
  92        7D+2        0.00107  -0.00079  -0.00208  -0.00719  -0.01025
  93        7D-2        0.00021  -0.00013  -0.00015  -0.00151  -0.00204
                           6         7         8         9        10
                           O         O         O         O         O
     Eigenvalues --    -0.59206  -0.52816  -0.47020  -0.46216  -0.39094
   1 1   H  1S          0.11962   0.10621  -0.00123  -0.02811  -0.10648
   2        2S          0.16311   0.17211  -0.00432  -0.04553  -0.15823
   3        3S          0.02151   0.02209   0.00364  -0.00832  -0.06619
   4        4PX         0.00109   0.00194   0.00683  -0.00143  -0.00061
   5        4PY         0.00542   0.00954   0.00031  -0.00021  -0.01217
   6        4PZ        -0.01994  -0.01309   0.00075   0.00473   0.00794
   7 2   H  1S          0.11962  -0.10621  -0.00123  -0.02811   0.10648
   8        2S          0.16311  -0.17211  -0.00432  -0.04553   0.15823
   9        3S          0.02151  -0.02209   0.00364  -0.00832   0.06619
  10        4PX         0.00109  -0.00194   0.00683  -0.00143   0.00061
  11        4PY         0.00542  -0.00954   0.00031  -0.00021   0.01217
  12        4PZ         0.01994  -0.01309  -0.00075  -0.00473   0.00794
  13 3   N  1S          0.04423   0.00000   0.00566   0.02654   0.00000
  14        2S          0.07210   0.00000   0.00926   0.04339   0.00000
  15        2PX        -0.01249   0.00000   0.22219  -0.02221   0.00000
  16        2PY         0.06605   0.00000   0.00040  -0.13488   0.00000
  17        2PZ         0.00000   0.15853   0.00000   0.00000   0.16087
  18        3S         -0.21847   0.00000  -0.02855  -0.13435   0.00000
  19        3PX        -0.01929   0.00000   0.34657  -0.03508   0.00000
  20        3PY         0.09712   0.00000   0.00140  -0.20373   0.00000
  21        3PZ         0.00000   0.24481   0.00000   0.00000   0.24952
  22        4S         -0.20330   0.00000  -0.03623  -0.17327   0.00000
  23        4PX        -0.00844   0.00000   0.22804  -0.02277   0.00000
  24        4PY         0.01401   0.00000   0.00412  -0.13696   0.00000
  25        4PZ         0.00000   0.15123   0.00000   0.00000   0.18729
  26        5S          0.18302   0.00000   0.04467   0.12093   0.00000
  27        5PX        -0.00465   0.00000  -0.00536  -0.00406   0.00000
  28        5PY         0.09146   0.00000   0.03007   0.04391   0.00000
  29        5PZ         0.00000  -0.00190   0.00000   0.00000   0.04416
  30        6D 0        0.00119   0.00000   0.00006   0.00036   0.00000
  31        6D+1        0.00000   0.00026   0.00000   0.00000  -0.00064
  32        6D-1        0.00000  -0.00276   0.00000   0.00000   0.01010
  33        6D+2        0.00197   0.00000  -0.00006   0.00073   0.00000
  34        6D-2        0.00058   0.00000   0.00194  -0.00034   0.00000
  35        7D 0       -0.00167   0.00000  -0.00048  -0.00116   0.00000
  36        7D+1        0.00000  -0.00043   0.00000   0.00000  -0.00282
  37        7D-1        0.00000  -0.00239   0.00000   0.00000   0.04143
  38        7D+2       -0.00376   0.00000  -0.00012   0.00154   0.00000
  39        7D-2        0.00122   0.00000   0.00094  -0.00088   0.00000
  40 4   N  1S         -0.03564   0.00000  -0.01191  -0.07411   0.00000
  41        2S         -0.05733   0.00000  -0.01927  -0.11995   0.00000
  42        2PX        -0.00398   0.00000   0.13389  -0.03567   0.00000
  43        2PY         0.01820   0.00000   0.03912   0.19433   0.00000
  44        2PZ         0.00000   0.07288   0.00000   0.00000   0.16314
  45        3S          0.16779   0.00000   0.05588   0.34670   0.00000
  46        3PX        -0.00621   0.00000   0.20728  -0.05318   0.00000
  47        3PY         0.02440   0.00000   0.05695   0.27644   0.00000
  48        3PZ         0.00000   0.11475   0.00000   0.00000   0.24841
  49        4S          0.18692   0.00000   0.07569   0.50088   0.00000
  50        4PX        -0.00278   0.00000   0.14296  -0.03275   0.00000
  51        4PY         0.00316   0.00000   0.03254   0.13590   0.00000
  52        4PZ         0.00000   0.07350   0.00000   0.00000   0.18940
  53        5S         -0.20614   0.00000  -0.05399  -0.07136   0.00000
  54        5PX        -0.00497   0.00000   0.01047  -0.00520   0.00000
  55        5PY         0.05660   0.00000   0.01744   0.04640   0.00000
  56        5PZ         0.00000   0.00111   0.00000   0.00000   0.00636
  57        6D 0        0.00075   0.00000   0.00114   0.00778   0.00000
  58        6D+1        0.00000   0.00055   0.00000   0.00000   0.00085
  59        6D-1        0.00000  -0.00729   0.00000   0.00000  -0.01099
  60        6D+2        0.00056   0.00000   0.00345   0.01155   0.00000
  61        6D-2        0.00038   0.00000  -0.01104   0.00349   0.00000
  62        7D 0        0.00219   0.00000   0.00152   0.00927   0.00000
  63        7D+1        0.00000   0.00174   0.00000   0.00000   0.00209
  64        7D-1        0.00000  -0.02186   0.00000   0.00000  -0.02776
  65        7D+2        0.00200   0.00000   0.00692   0.01027   0.00000
  66        7D-2        0.00148   0.00000  -0.03352   0.00652   0.00000
  67 5   C  1S         -0.06376   0.00000  -0.00479  -0.00308   0.00000
  68        2S         -0.10087   0.00000  -0.00767  -0.00494   0.00000
  69        2PX        -0.00315   0.00000   0.09321  -0.01549   0.00000
  70        2PY        -0.15361   0.00000   0.00968   0.07516   0.00000
  71        2PZ         0.00000   0.17045   0.00000   0.00000  -0.12260
  72        3S          0.26047   0.00000   0.02129   0.01937   0.00000
  73        3PX        -0.00422   0.00000   0.14832  -0.02468   0.00000
  74        3PY        -0.20753   0.00000   0.01445   0.10200   0.00000
  75        3PZ         0.00000   0.23848   0.00000   0.00000  -0.15755
  76        4S          0.24333   0.00000   0.02750  -0.02618   0.00000
  77        4PX        -0.00275   0.00000   0.09156  -0.01352   0.00000
  78        4PY        -0.09016   0.00000   0.00797   0.03852   0.00000
  79        4PZ         0.00000   0.11069   0.00000   0.00000  -0.12708
  80        5S          0.02735   0.00000   0.00669  -0.00532   0.00000
  81        5PX        -0.00150   0.00000   0.01224  -0.00081   0.00000
  82        5PY        -0.00517   0.00000   0.00223   0.00020   0.00000
  83        5PZ         0.00000   0.01786   0.00000   0.00000  -0.01723
  84        6D 0        0.01400   0.00000  -0.00015  -0.00513   0.00000
  85        6D+1        0.00000  -0.00220   0.00000   0.00000   0.00073
  86        6D-1        0.00000   0.00161   0.00000   0.00000   0.01586
  87        6D+2        0.00619   0.00000  -0.00263  -0.00458   0.00000
  88        6D-2        0.00173   0.00000   0.01342  -0.00305   0.00000
  89        7D 0        0.00516   0.00000   0.00098   0.00162   0.00000
  90        7D+1        0.00000  -0.00313   0.00000   0.00000  -0.00021
  91        7D-1        0.00000   0.03499   0.00000   0.00000   0.03404
  92        7D+2        0.00334   0.00000  -0.00553   0.00024   0.00000
  93        7D-2        0.00204   0.00000   0.02431  -0.00461   0.00000
                          11        12        13        14        15
                           O         V         V         V         V
     Eigenvalues --    -0.24478  -0.07700  -0.01182   0.01107   0.05023
   1 1   H  1S          0.00467   0.05954  -0.01014   0.00341   0.01200
   2        2S          0.01064   0.12471  -0.02655  -0.01741  -0.06631
   3        3S         -0.00339   0.20194  -0.03805  -0.24729   0.24949
   4        4PX        -0.01761   0.00001   0.02083  -0.00005  -0.00155
   5        4PY         0.00084  -0.00225   0.00014   0.00743   0.00672
   6        4PZ        -0.00127  -0.00133   0.00010  -0.01681   0.00466
   7 2   H  1S          0.00467  -0.05954  -0.01014   0.00341   0.01200
   8        2S          0.01064  -0.12471  -0.02655  -0.01741  -0.06631
   9        3S         -0.00339  -0.20194  -0.03805  -0.24729   0.24949
  10        4PX        -0.01761  -0.00001   0.02083  -0.00005  -0.00155
  11        4PY         0.00084   0.00225   0.00014   0.00743   0.00672
  12        4PZ         0.00127  -0.00133  -0.00010   0.01681  -0.00466
  13 3   N  1S         -0.00130   0.00000   0.00152   0.00204   0.01397
  14        2S         -0.00215   0.00000   0.00255   0.00332   0.02415
  15        2PX        -0.03342   0.00000  -0.20826   0.01213   0.00070
  16        2PY        -0.00607   0.00000  -0.01298   0.00390   0.02947
  17        2PZ         0.00000  -0.19829   0.00000   0.00000   0.00000
  18        3S          0.00707   0.00000  -0.00921  -0.01703  -0.10061
  19        3PX        -0.05335   0.00000  -0.32437   0.01862   0.00092
  20        3PY        -0.00926   0.00000  -0.02013  -0.00106   0.03063
  21        3PZ         0.00000  -0.30977   0.00000   0.00000   0.00000
  22        4S          0.00751   0.00000   0.00977   0.41154  -0.08100
  23        4PX        -0.04879   0.00000  -0.37895   0.06713   0.01199
  24        4PY        -0.01059   0.00000  -0.04840  -0.51226   0.01688
  25        4PZ         0.00000  -0.33109   0.00000   0.00000   0.00000
  26        5S         -0.06182   0.00000   0.00645  -2.71414  -1.95922
  27        5PX         0.02488   0.00000  -0.52595   0.28597  -0.07874
  28        5PY        -0.04493   0.00000  -0.12704  -3.55633   0.23129
  29        5PZ         0.00000  -0.25878   0.00000   0.00000   0.00000
  30        6D 0       -0.00004   0.00000  -0.00009  -0.00288   0.00268
  31        6D+1        0.00000  -0.00106   0.00000   0.00000   0.00000
  32        6D-1        0.00000   0.01206   0.00000   0.00000   0.00000
  33        6D+2       -0.00252   0.00000  -0.00062  -0.00458   0.00353
  34        6D-2        0.01679   0.00000   0.00159  -0.00064   0.00065
  35        7D 0        0.00115   0.00000  -0.00343  -0.03389   0.00563
  36        7D+1        0.00000  -0.00385   0.00000   0.00000   0.00000
  37        7D-1        0.00000   0.04406   0.00000   0.00000   0.00000
  38        7D+2       -0.00999   0.00000  -0.00391  -0.05433   0.01204
  39        7D-2        0.06914   0.00000   0.00441  -0.00774   0.00138
  40 4   N  1S          0.00010   0.00000  -0.00099  -0.01563   0.01655
  41        2S          0.00016   0.00000  -0.00162  -0.02542   0.02798
  42        2PX         0.21081   0.00000   0.14672  -0.00763  -0.00129
  43        2PY         0.01830   0.00000   0.00815  -0.01875  -0.01594
  44        2PZ         0.00000   0.22892   0.00000   0.00000   0.00000
  45        3S         -0.00062   0.00000   0.00513   0.07421  -0.10525
  46        3PX         0.31185   0.00000   0.22008  -0.01201  -0.00353
  47        3PY         0.02679   0.00000   0.01281  -0.02192  -0.00885
  48        3PZ         0.00000   0.34582   0.00000   0.00000   0.00000
  49        4S          0.00375   0.00000   0.01376   0.36150  -0.07803
  50        4PX         0.29549   0.00000   0.28778  -0.00888   0.00534
  51        4PY         0.02249   0.00000   0.01503  -0.13688  -0.12167
  52        4PZ         0.00000   0.39722   0.00000   0.00000   0.00000
  53        5S          0.08775   0.00000   0.12270   6.05290  -0.16926
  54        5PX         0.06346   0.00000   0.34625   0.09428   0.00233
  55        5PY        -0.01467   0.00000  -0.00322  -1.44649   0.16086
  56        5PZ         0.00000   0.25294   0.00000   0.00000   0.00000
  57        6D 0        0.00007   0.00000  -0.00004  -0.00001   0.00058
  58        6D+1        0.00000  -0.00021   0.00000   0.00000   0.00000
  59        6D-1        0.00000   0.00280   0.00000   0.00000   0.00000
  60        6D+2        0.00091   0.00000  -0.00104  -0.00039   0.00169
  61        6D-2       -0.00524   0.00000   0.00651  -0.00052   0.00018
  62        7D 0       -0.00020   0.00000   0.00024  -0.00310   0.00042
  63        7D+1        0.00000  -0.00101   0.00000   0.00000   0.00000
  64        7D-1        0.00000   0.01189   0.00000   0.00000   0.00000
  65        7D+2        0.00071   0.00000  -0.00266  -0.00379  -0.00217
  66        7D-2       -0.00576   0.00000   0.01812  -0.00133  -0.00066
  67 5   C  1S          0.00524   0.00000  -0.00724  -0.03896  -0.00758
  68        2S          0.00856   0.00000  -0.01197  -0.06518  -0.01227
  69        2PX        -0.18954   0.00000   0.12796  -0.01117  -0.00175
  70        2PY        -0.00492   0.00000   0.00009  -0.01881  -0.02753
  71        2PZ         0.00000  -0.00178   0.00000   0.00000   0.00000
  72        3S         -0.02342   0.00000   0.03488   0.24497   0.01772
  73        3PX        -0.28708   0.00000   0.19960  -0.01129  -0.00595
  74        3PY        -0.00638   0.00000  -0.00440  -0.09503  -0.06727
  75        3PZ         0.00000  -0.00782   0.00000   0.00000   0.00000
  76        4S         -0.05238   0.00000   0.05237  -0.80281   0.25312
  77        4PX        -0.30703   0.00000   0.37308   0.00593  -0.00819
  78        4PY        -0.01090   0.00000  -0.02867  -0.68441   0.04071
  79        4PZ         0.00000  -0.05119   0.00000   0.00000   0.00000
  80        5S         -0.01501   0.00000  -0.11742  -3.51510   1.50388
  81        5PX        -0.06583   0.00000   0.58183   0.02912  -0.05310
  82        5PY        -0.00414   0.00000   0.01083  -0.37861   1.96422
  83        5PZ         0.00000   0.10711   0.00000   0.00000   0.00000
  84        6D 0       -0.00023   0.00000  -0.00066  -0.00153   0.00650
  85        6D+1        0.00000   0.00027   0.00000   0.00000   0.00000
  86        6D-1        0.00000  -0.02169   0.00000   0.00000   0.00000
  87        6D+2        0.00080   0.00000   0.00249  -0.00161   0.00695
  88        6D-2       -0.00568   0.00000  -0.01425   0.00055   0.00152
  89        7D 0       -0.00312   0.00000   0.00510   0.03967   0.04780
  90        7D+1        0.00000   0.00237   0.00000   0.00000   0.00000
  91        7D-1        0.00000  -0.04481   0.00000   0.00000   0.00000
  92        7D+2        0.00223   0.00000   0.00835   0.06482   0.02323
  93        7D-2        0.00189   0.00000  -0.04862   0.01360   0.00397
                          16        17        18        19        20
                           V         V         V         V         V
     Eigenvalues --     0.05048   0.07948   0.10808   0.13910   0.14454
   1 1   H  1S         -0.03139  -0.01049   0.00647  -0.01074  -0.07875
   2        2S          0.02438   0.00176  -0.04101  -0.01725  -0.11778
   3        3S         -0.52314  -0.21665   0.18822  -0.64756  -2.51780
   4        4PX        -0.00010   0.00672   0.00149   0.00163  -0.00087
   5        4PY        -0.00529   0.00070  -0.01041   0.01074  -0.00182
   6        4PZ         0.01025   0.00010  -0.00368  -0.01205  -0.02115
   7 2   H  1S          0.03139  -0.01049   0.00647   0.01074  -0.07875
   8        2S         -0.02438   0.00176  -0.04101   0.01725  -0.11778
   9        3S          0.52314  -0.21665   0.18822   0.64756  -2.51780
  10        4PX         0.00010   0.00672   0.00149  -0.00163  -0.00087
  11        4PY         0.00529   0.00070  -0.01041  -0.01074  -0.00182
  12        4PZ         0.01025  -0.00010   0.00368  -0.01205   0.02115
  13 3   N  1S          0.00000   0.00230  -0.02452   0.00000   0.01157
  14        2S          0.00000   0.00408  -0.04144   0.00000   0.02028
  15        2PX         0.00000  -0.07476  -0.00334   0.00000   0.02192
  16        2PY         0.00000  -0.00300   0.01159   0.00000   0.01135
  17        2PZ         0.02050   0.00000   0.00000  -0.05771   0.00000
  18        3S          0.00000  -0.02096   0.16302   0.00000  -0.08929
  19        3PX         0.00000  -0.09364  -0.00339   0.00000   0.02383
  20        3PY         0.00000  -0.00319   0.00577   0.00000   0.02013
  21        3PZ         0.01630   0.00000   0.00000  -0.06699   0.00000
  22        4S          0.00000   0.08803  -0.22972   0.00000   0.31265
  23        4PX         0.00000  -0.30361   0.03368   0.00000   0.12950
  24        4PY         0.00000  -0.12190  -0.64908   0.00000  -0.41651
  25        4PZ         0.12123   0.00000   0.00000  -0.24333   0.00000
  26        5S          0.00000  -1.38769  13.21713   0.00000  -6.19075
  27        5PX         0.00000   0.72728  -0.29110   0.00000   0.26629
  28        5PY         0.00000  -0.87266   4.33432   0.00000  -4.19088
  29        5PZ        -0.82413   0.00000   0.00000   0.32664   0.00000
  30        6D 0        0.00000  -0.00013   0.00178   0.00000  -0.00296
  31        6D+1        0.00016   0.00000   0.00000   0.00090   0.00000
  32        6D-1       -0.00020   0.00000   0.00000  -0.01010   0.00000
  33        6D+2        0.00000   0.00060   0.00216   0.00000  -0.00059
  34        6D-2        0.00000  -0.00251   0.00019   0.00000   0.00363
  35        7D 0        0.00000  -0.00544   0.03978   0.00000  -0.03427
  36        7D+1        0.00013   0.00000   0.00000   0.00017   0.00000
  37        7D-1        0.00406   0.00000   0.00000   0.01025   0.00000
  38        7D+2        0.00000  -0.00559   0.06943   0.00000  -0.00597
  39        7D-2        0.00000  -0.01025   0.01150   0.00000  -0.00154
  40 4   N  1S          0.00000  -0.00055   0.03141   0.00000   0.00099
  41        2S          0.00000  -0.00077   0.05186   0.00000   0.00153
  42        2PX         0.00000   0.08507   0.00293   0.00000   0.02703
  43        2PY         0.00000   0.00341  -0.00283   0.00000  -0.02403
  44        2PZ        -0.05474   0.00000   0.00000  -0.08647   0.00000
  45        3S          0.00000  -0.00009  -0.18377   0.00000  -0.00376
  46        3PX         0.00000   0.12218   0.00486   0.00000   0.02522
  47        3PY         0.00000   0.00848  -0.01972   0.00000  -0.02225
  48        3PZ        -0.08621   0.00000   0.00000  -0.08940   0.00000
  49        4S          0.00000   0.05054   0.30382   0.00000   0.11389
  50        4PX         0.00000   0.23132   0.04812   0.00000   0.12076
  51        4PY         0.00000  -0.01853  -0.50657   0.00000  -0.20697
  52        4PZ        -0.11151   0.00000   0.00000  -0.35001   0.00000
  53        5S          0.00000   1.80027 -11.54862   0.00000   8.52142
  54        5PX         0.00000  -0.26133  -0.36711   0.00000  -0.24020
  55        5PY         0.00000  -0.46980   4.49300   0.00000  -2.06084
  56        5PZ         0.27176   0.00000   0.00000   1.08652   0.00000
  57        6D 0        0.00000   0.00019  -0.00099   0.00000   0.00080
  58        6D+1       -0.00001   0.00000   0.00000  -0.00048   0.00000
  59        6D-1        0.00013   0.00000   0.00000   0.00634   0.00000
  60        6D+2        0.00000  -0.00013  -0.00073   0.00000   0.00214
  61        6D-2        0.00000   0.00301   0.00001   0.00000  -0.00215
  62        7D 0        0.00000  -0.00008  -0.04216   0.00000  -0.00612
  63        7D+1        0.00008   0.00000   0.00000  -0.00173   0.00000
  64        7D-1        0.00230   0.00000   0.00000   0.02764   0.00000
  65        7D+2        0.00000   0.00117  -0.07195   0.00000   0.00480
  66        7D-2        0.00000  -0.00249  -0.01116   0.00000  -0.00771
  67 5   C  1S          0.00000  -0.00521   0.00365   0.00000  -0.04022
  68        2S          0.00000  -0.00842   0.00590   0.00000  -0.06434
  69        2PX         0.00000   0.14497   0.00692   0.00000  -0.02747
  70        2PY         0.00000   0.00481  -0.04387   0.00000  -0.05621
  71        2PZ        -0.07606   0.00000   0.00000   0.06183   0.00000
  72        3S          0.00000   0.02652  -0.02295   0.00000   0.14675
  73        3PX         0.00000   0.20865   0.00647   0.00000  -0.03203
  74        3PY         0.00000  -0.00315  -0.05967   0.00000  -0.08598
  75        3PZ        -0.15982   0.00000   0.00000   0.07355   0.00000
  76        4S          0.00000  -0.12264  -0.25856   0.00000   0.73420
  77        4PX         0.00000   0.50803   0.06316   0.00000  -0.14727
  78        4PY         0.00000  -0.11068  -0.54061   0.00000  -1.11590
  79        4PZ        -0.01575   0.00000   0.00000   0.45284   0.00000
  80        5S          0.00000  -0.10626  -0.97869   0.00000   0.87314
  81        5PX         0.00000  -1.43221   0.02751   0.00000   0.18487
  82        5PY         0.00000  -0.07354  -0.81429   0.00000  -0.61852
  83        5PZ         1.82023   0.00000   0.00000  -0.37558   0.00000
  84        6D 0        0.00000  -0.00093  -0.00454   0.00000  -0.01727
  85        6D+1        0.00120   0.00000   0.00000   0.00067   0.00000
  86        6D-1        0.00365   0.00000   0.00000   0.00426   0.00000
  87        6D+2        0.00000   0.00142  -0.01105   0.00000   0.00617
  88        6D-2        0.00000  -0.00315  -0.00163   0.00000  -0.00033
  89        7D 0        0.00000   0.00522  -0.00029   0.00000  -0.00572
  90        7D+1        0.00164   0.00000   0.00000  -0.00252   0.00000
  91        7D-1        0.00995   0.00000   0.00000   0.05147   0.00000
  92        7D+2        0.00000   0.01448  -0.01034   0.00000   0.08622
  93        7D-2        0.00000   0.00144   0.00276   0.00000   0.00448
                          21        22        23        24        25
                           V         V         V         V         V
     Eigenvalues --     0.14982   0.18805   0.21470   0.22065   0.22462
   1 1   H  1S         -0.02652   0.00018  -0.01128  -0.02065  -0.00813
   2        2S         -0.04042   0.02042   0.14207   0.18426   0.06196
   3        3S         -0.88959  -0.33667  -0.34572  -1.13491  -0.50407
   4        4PX        -0.00284   0.00156   0.00049  -0.00245   0.00101
   5        4PY        -0.00140  -0.01165   0.01476   0.02100   0.00673
   6        4PZ        -0.00691  -0.00632  -0.01225  -0.00289  -0.00081
   7 2   H  1S         -0.02652   0.00018   0.01128  -0.02065  -0.00813
   8        2S         -0.04042   0.02042  -0.14207   0.18426   0.06196
   9        3S         -0.88959  -0.33667   0.34572  -1.13491  -0.50407
  10        4PX        -0.00284   0.00156  -0.00049  -0.00245   0.00101
  11        4PY        -0.00140  -0.01165  -0.01476   0.02100   0.00673
  12        4PZ         0.00691   0.00632  -0.01225   0.00289   0.00081
  13 3   N  1S          0.00379  -0.02042   0.00000   0.00917   0.00296
  14        2S          0.00669  -0.03398   0.00000   0.01550   0.00506
  15        2PX        -0.02214   0.00140   0.00000   0.03641  -0.08941
  16        2PY         0.00143  -0.01553   0.00000   0.05839   0.01773
  17        2PZ         0.00000   0.00000  -0.10435   0.00000   0.00000
  18        3S         -0.03119   0.05979   0.00000  -0.04303  -0.01647
  19        3PX        -0.01659   0.00004   0.00000   0.03982  -0.09517
  20        3PY         0.00388  -0.00522   0.00000   0.05476   0.01328
  21        3PZ         0.00000   0.00000  -0.12568   0.00000   0.00000
  22        4S          0.13365   1.18934   0.00000  -0.20348   0.00458
  23        4PX        -0.07491   0.06609   0.00000   0.30543  -0.41384
  24        4PY        -0.16446  -0.82600   0.00000  -1.06300  -0.50835
  25        4PZ         0.00000   0.00000  -0.54922   0.00000   0.00000
  26        5S         -2.37246  -5.93032   0.00000  -0.37433  -0.40537
  27        5PX         0.43348   0.48770   0.00000  -0.93357   3.88697
  28        5PY        -1.54010  -6.38980   0.00000  -8.53380  -3.52152
  29        5PZ         0.00000   0.00000   3.84729   0.00000   0.00000
  30        6D 0       -0.00107   0.01582   0.00000   0.00050   0.00055
  31        6D+1        0.00000   0.00000   0.00011   0.00000   0.00000
  32        6D-1        0.00000   0.00000   0.00235   0.00000   0.00000
  33        6D+2        0.00108   0.02778   0.00000   0.00529   0.00201
  34        6D-2       -0.00751   0.00415   0.00000  -0.00033   0.00396
  35        7D 0       -0.01288  -0.00771   0.00000   0.02356   0.00742
  36        7D+1        0.00000   0.00000  -0.00229   0.00000   0.00000
  37        7D-1        0.00000   0.00000   0.01212   0.00000   0.00000
  38        7D+2       -0.00531  -0.01357   0.00000   0.04526   0.01758
  39        7D-2        0.01372  -0.00069   0.00000   0.00524   0.00082
  40 4   N  1S          0.00038   0.03700   0.00000  -0.00076  -0.00019
  41        2S          0.00063   0.06116   0.00000   0.00064   0.00060
  42        2PX        -0.10480  -0.00828   0.00000  -0.01359   0.01954
  43        2PY        -0.01738   0.10167   0.00000   0.02264   0.01470
  44        2PZ         0.00000   0.00000   0.04381   0.00000   0.00000
  45        3S         -0.00236  -0.17791   0.00000  -0.05909  -0.02782
  46        3PX        -0.10996  -0.01435   0.00000  -0.00807   0.01325
  47        3PY        -0.01630   0.18283   0.00000  -0.00722   0.00466
  48        3PZ         0.00000   0.00000   0.03951   0.00000   0.00000
  49        4S          0.04474  -0.67068   0.00000   1.25532   0.53827
  50        4PX        -0.42914  -0.01290   0.00000  -0.05034   0.18645
  51        4PY        -0.11200   0.10617   0.00000  -0.52234  -0.19228
  52        4PZ         0.00000   0.00000   0.26205   0.00000   0.00000
  53        5S          3.18684  14.11764   0.00000   9.32267   4.27065
  54        5PX         1.27374   0.32849   0.00000   0.97431  -2.01152
  55        5PY        -0.66289  -4.19989   0.00000  -0.66472  -0.52779
  56        5PZ         0.00000   0.00000  -2.37905   0.00000   0.00000
  57        6D 0        0.00027   0.00451   0.00000  -0.00049  -0.00033
  58        6D+1        0.00000   0.00000  -0.00017   0.00000   0.00000
  59        6D-1        0.00000   0.00000   0.00168   0.00000   0.00000
  60        6D+2       -0.00004   0.00891   0.00000  -0.00120  -0.00092
  61        6D-2        0.00427   0.00133   0.00000  -0.00097   0.00112
  62        7D 0       -0.00216   0.00934   0.00000  -0.04386  -0.01822
  63        7D+1        0.00000   0.00000   0.00210   0.00000   0.00000
  64        7D-1        0.00000   0.00000  -0.01957   0.00000   0.00000
  65        7D+2       -0.00297   0.01549   0.00000  -0.06403  -0.02270
  66        7D-2        0.02825   0.00332   0.00000  -0.00008  -0.02497
  67 5   C  1S         -0.01388   0.03964   0.00000   0.02096   0.01019
  68        2S         -0.02222   0.06730   0.00000   0.03232   0.01582
  69        2PX         0.00530   0.00621   0.00000   0.01183  -0.04462
  70        2PY        -0.01783  -0.09332   0.00000   0.02636   0.00684
  71        2PZ         0.00000   0.00000  -0.01732   0.00000   0.00000
  72        3S          0.05111  -0.16755   0.00000   0.01517   0.00069
  73        3PX         0.02244   0.02347   0.00000   0.01913  -0.02400
  74        3PY        -0.02865  -0.25092   0.00000   0.02262  -0.00152
  75        3PZ         0.00000   0.00000  -0.04949   0.00000   0.00000
  76        4S          0.23445  -2.76781   0.00000  -3.35947  -1.50465
  77        4PX         0.01363   0.07947   0.00000   0.12364  -0.28987
  78        4PY        -0.40116  -1.38485   0.00000  -0.82350  -0.43690
  79        4PZ         0.00000   0.00000  -0.23905   0.00000   0.00000
  80        5S          0.30778  -5.32913   0.00000  -4.88740  -2.09854
  81        5PX        -0.77048   0.11059   0.00000   0.61745  -1.29616
  82        5PY        -0.25133  -1.67015   0.00000  -1.20916  -0.59304
  83        5PZ         0.00000   0.00000  -1.16638   0.00000   0.00000
  84        6D 0       -0.00592  -0.00520   0.00000  -0.00174  -0.00105
  85        6D+1        0.00000   0.00000   0.00093   0.00000   0.00000
  86        6D-1        0.00000   0.00000  -0.00354   0.00000   0.00000
  87        6D+2        0.00172  -0.00143   0.00000   0.01215   0.00618
  88        6D-2        0.00154  -0.00032   0.00000   0.00328  -0.00394
  89        7D 0       -0.00181   0.03726   0.00000   0.00670   0.01167
  90        7D+1        0.00000   0.00000   0.00549   0.00000   0.00000
  91        7D-1        0.00000   0.00000   0.11012   0.00000   0.00000
  92        7D+2        0.02587   0.08070   0.00000   0.15477   0.06883
  93        7D-2        0.04406   0.01621   0.00000   0.00361   0.02481
                          26        27        28        29        30
                           V         V         V         V         V
     Eigenvalues --     0.23022   0.25313   0.29734   0.37766   0.50436
   1 1   H  1S          0.02784  -0.00014  -0.00984  -0.03631  -0.08593
   2        2S          0.04576   0.10484   0.03290  -0.50116  -1.48607
   3        3S          3.00660   0.38143  -0.72531   0.70583   1.07690
   4        4PX        -0.00576  -0.00216  -0.00058   0.00006   0.01173
   5        4PY        -0.02083   0.03357  -0.01171  -0.04199   0.01967
   6        4PZ         0.02157   0.00287   0.00728   0.00521   0.07244
   7 2   H  1S         -0.02784  -0.00014  -0.00984  -0.03631   0.08593
   8        2S         -0.04576   0.10484   0.03290  -0.50116   1.48607
   9        3S         -3.00660   0.38143  -0.72531   0.70583  -1.07690
  10        4PX         0.00576  -0.00216  -0.00058   0.00006  -0.01173
  11        4PY         0.02083   0.03357  -0.01171  -0.04199  -0.01967
  12        4PZ         0.02157  -0.00287  -0.00728  -0.00521   0.07244
  13 3   N  1S          0.00000   0.06950   0.00499   0.02931   0.00000
  14        2S          0.00000   0.11409   0.01084   0.05032   0.00000
  15        2PX         0.00000  -0.00257   0.00309   0.01112   0.00000
  16        2PY         0.00000   0.00494  -0.03180  -0.11457   0.00000
  17        2PZ         0.04764   0.00000   0.00000   0.00000  -0.09594
  18        3S          0.00000  -0.25227  -0.13419  -0.20005   0.00000
  19        3PX         0.00000  -0.00147   0.00443   0.01857   0.00000
  20        3PY         0.00000   0.01894  -0.07163  -0.22896   0.00000
  21        3PZ         0.07370   0.00000   0.00000   0.00000  -0.16395
  22        4S          0.00000  -3.48424   1.56974   1.14076   0.00000
  23        4PX         0.00000  -0.02175   0.13041   0.26939   0.00000
  24        4PY         0.00000   0.08221  -1.49041  -3.41198   0.00000
  25        4PZ         0.25149   0.00000   0.00000   0.00000  -0.25957
  26        5S          0.00000   5.96396 -40.58583  28.51268   0.00000
  27        5PX         0.00000  -0.07618   1.47646  -0.63138   0.00000
  28        5PY         0.00000   1.93618 -19.39013   8.39409   0.00000
  29        5PZ         1.29209   0.00000   0.00000   0.00000  -1.01705
  30        6D 0        0.00000  -0.01142  -0.00648  -0.00626   0.00000
  31        6D+1       -0.00117   0.00000   0.00000   0.00000   0.00385
  32        6D-1        0.00610   0.00000   0.00000   0.00000  -0.01541
  33        6D+2        0.00000  -0.01813  -0.00959  -0.01273   0.00000
  34        6D-2        0.00000  -0.00263  -0.00126  -0.00193   0.00000
  35        7D 0        0.00000   0.05978  -0.11576  -0.07149   0.00000
  36        7D+1       -0.01077   0.00000   0.00000   0.00000   0.06937
  37        7D-1        0.02581   0.00000   0.00000   0.00000  -0.07359
  38        7D+2        0.00000   0.07149  -0.16473  -0.07193   0.00000
  39        7D-2        0.00000   0.00783  -0.02510  -0.00632   0.00000
  40 4   N  1S          0.00000  -0.01145  -0.00054  -0.03381   0.00000
  41        2S          0.00000  -0.02221  -0.00049  -0.05412   0.00000
  42        2PX         0.00000   0.01110   0.00820   0.00599   0.00000
  43        2PY         0.00000  -0.14288  -0.11484  -0.07837   0.00000
  44        2PZ        -0.07739   0.00000   0.00000   0.00000   0.03266
  45        3S          0.00000   0.09905  -0.00556   0.09200   0.00000
  46        3PX         0.00000   0.02183   0.00459   0.01197   0.00000
  47        3PY         0.00000  -0.28334  -0.06146  -0.15389   0.00000
  48        3PZ        -0.09826   0.00000   0.00000   0.00000   0.03285
  49        4S          0.00000   0.36553   0.19008   2.76747   0.00000
  50        4PX         0.00000   0.06941   0.06081   0.09163   0.00000
  51        4PY         0.00000  -0.82838  -0.89621  -1.28354   0.00000
  52        4PZ        -0.32465   0.00000   0.00000   0.00000   0.19946
  53        5S          0.00000  -2.71839  46.55726 -26.55594   0.00000
  54        5PX         0.00000  -0.09213   0.91012  -0.60041   0.00000
  55        5PY         0.00000   0.67062 -11.90890   7.68835   0.00000
  56        5PZ         0.24499   0.00000   0.00000   0.00000   0.56042
  57        6D 0        0.00000   0.00549   0.00318   0.00905   0.00000
  58        6D+1        0.00025   0.00000   0.00000   0.00000  -0.00025
  59        6D-1       -0.00355   0.00000   0.00000   0.00000   0.00801
  60        6D+2        0.00000   0.00903   0.00572   0.01543   0.00000
  61        6D-2        0.00000   0.00152   0.00067   0.00208   0.00000
  62        7D 0        0.00000  -0.01985  -0.00209  -0.00706   0.00000
  63        7D+1       -0.00351   0.00000   0.00000   0.00000   0.00927
  64        7D-1        0.00831   0.00000   0.00000   0.00000   0.06220
  65        7D+2        0.00000  -0.03941   0.00544  -0.02324   0.00000
  66        7D-2        0.00000  -0.00797   0.00192  -0.00253   0.00000
  67 5   C  1S          0.00000  -0.03402   0.00829  -0.00190   0.00000
  68        2S          0.00000  -0.06110   0.01515  -0.00412   0.00000
  69        2PX         0.00000  -0.00754  -0.01181  -0.00670   0.00000
  70        2PY         0.00000   0.11386   0.12805   0.09119   0.00000
  71        2PZ        -0.18254   0.00000   0.00000   0.00000   0.05209
  72        3S          0.00000   0.21382   0.00963   0.07258   0.00000
  73        3PX         0.00000  -0.02316   0.00769   0.00151   0.00000
  74        3PY         0.00000   0.32835  -0.02284  -0.06847   0.00000
  75        3PZ        -0.19810   0.00000   0.00000   0.00000   0.24104
  76        4S          0.00000   1.28895  -3.76585  -4.38224   0.00000
  77        4PX         0.00000  -0.08053   0.02746   0.23952   0.00000
  78        4PY         0.00000   1.52515  -1.14584  -3.88033   0.00000
  79        4PZ        -1.62354   0.00000   0.00000   0.00000   1.77599
  80        5S          0.00000  -2.41752  -3.05439  -1.50824   0.00000
  81        5PX         0.00000   0.12170  -0.06388   0.05592   0.00000
  82        5PY         0.00000  -1.81504   0.50322   0.05361   0.00000
  83        5PZ        -2.41217   0.00000   0.00000   0.00000  -0.48700
  84        6D 0        0.00000   0.01125  -0.00510  -0.02494   0.00000
  85        6D+1       -0.00202   0.00000   0.00000   0.00000   0.00401
  86        6D-1       -0.01160   0.00000   0.00000   0.00000   0.02728
  87        6D+2        0.00000   0.01197   0.00105  -0.02565   0.00000
  88        6D-2        0.00000   0.00175  -0.00057  -0.00494   0.00000
  89        7D 0        0.00000  -0.04376   0.06991   0.19244   0.00000
  90        7D+1       -0.02275   0.00000   0.00000   0.00000   0.26959
  91        7D-1       -0.00383   0.00000   0.00000   0.00000  -0.10916
  92        7D+2        0.00000  -0.06249   0.20315   0.31804   0.00000
  93        7D-2        0.00000  -0.02138   0.03024   0.06904   0.00000
                          31        32        33        34        35
                           V         V         V         V         V
     Eigenvalues --     0.50929   0.54886   0.56409   0.64506   0.66837
   1 1   H  1S          0.10464   0.03576  -0.05232  -0.01537   0.05287
   2        2S          1.20026   0.25730  -0.39682   0.38421  -0.74168
   3        3S         -2.94418  -0.88660   0.93078   0.43259  -2.82481
   4        4PX         0.00419  -0.00157  -0.03301   0.00545  -0.01265
   5        4PY         0.00637  -0.00926   0.03030   0.03625  -0.03825
   6        4PZ         0.01037   0.00905   0.00331  -0.06021   0.10999
   7 2   H  1S          0.10464   0.03576   0.05232  -0.01537  -0.05287
   8        2S          1.20026   0.25730   0.39682   0.38421   0.74168
   9        3S         -2.94418  -0.88660  -0.93078   0.43259   2.82481
  10        4PX         0.00419  -0.00157   0.03301   0.00545   0.01265
  11        4PY         0.00637  -0.00926  -0.03030   0.03625   0.03825
  12        4PZ        -0.01037  -0.00905   0.00331   0.06021   0.10999
  13 3   N  1S         -0.00691  -0.00217   0.00000  -0.00496   0.00000
  14        2S         -0.01103  -0.00406   0.00000  -0.00647   0.00000
  15        2PX         0.00881  -0.03739   0.00000   0.01466   0.00000
  16        2PY        -0.10496  -0.02825   0.00000  -0.20550   0.00000
  17        2PZ         0.00000   0.00000  -0.05513   0.00000  -0.00319
  18        3S          0.04456   0.03377   0.00000   0.12498   0.00000
  19        3PX         0.02138  -0.10072   0.00000   0.03186   0.00000
  20        3PY        -0.18358  -0.06128   0.00000  -0.42626   0.00000
  21        3PZ         0.00000   0.00000  -0.13920   0.00000   0.05031
  22        4S          0.43989  -0.06635   0.00000  -6.05034   0.00000
  23        4PX         0.12085   0.31460   0.00000   0.02767   0.00000
  24        4PY        -2.55052  -0.32303   0.00000  -0.36687   0.00000
  25        4PZ         0.00000   0.00000   0.02262   0.00000  -0.40107
  26        5S         -1.60581  -1.05425   0.00000 -14.24661   0.00000
  27        5PX         0.31559   0.83920   0.00000   0.45079   0.00000
  28        5PY        -6.44496  -1.61896   0.00000  -6.40681   0.00000
  29        5PZ         0.00000   0.00000  -0.04942   0.00000  -2.11464
  30        6D 0       -0.00267  -0.00111   0.00000  -0.00344   0.00000
  31        6D+1        0.00000   0.00000  -0.00821   0.00000  -0.00441
  32        6D-1        0.00000   0.00000  -0.01283   0.00000  -0.00171
  33        6D+2       -0.00496  -0.00107   0.00000   0.00328   0.00000
  34        6D-2       -0.00068  -0.00697   0.00000   0.00033   0.00000
  35        7D 0        0.04552   0.00880   0.00000   0.25284   0.00000
  36        7D+1        0.00000   0.00000  -0.17479   0.00000  -0.07526
  37        7D-1        0.00000   0.00000  -0.04399   0.00000   0.09386
  38        7D+2        0.02167   0.04541   0.00000   0.46494   0.00000
  39        7D-2        0.01827  -0.08818   0.00000   0.06984   0.00000
  40 4   N  1S         -0.00948  -0.00194   0.00000  -0.01572   0.00000
  41        2S         -0.01447  -0.00329   0.00000  -0.02463   0.00000
  42        2PX        -0.00532   0.03432   0.00000   0.00028   0.00000
  43        2PY        -0.02566  -0.00341   0.00000   0.00760   0.00000
  44        2PZ         0.00000   0.00000   0.02285   0.00000   0.03410
  45        3S         -0.02119   0.00073   0.00000  -0.08284   0.00000
  46        3PX        -0.01802   0.09833   0.00000   0.00490   0.00000
  47        3PY        -0.07726  -0.01593   0.00000  -0.03487   0.00000
  48        3PZ         0.00000   0.00000   0.03235   0.00000   0.07699
  49        4S          2.09484   0.36005   0.00000   3.13978   0.00000
  50        4PX         0.13027  -0.08771   0.00000   0.21835   0.00000
  51        4PY        -1.26507  -0.25032   0.00000  -2.88994   0.00000
  52        4PZ         0.00000   0.00000   0.03259   0.00000  -0.02537
  53        5S          8.20326   2.48617   0.00000  15.05899   0.00000
  54        5PX         0.25725  -0.48942   0.00000   0.23792   0.00000
  55        5PY        -1.15160  -0.47326   0.00000  -3.00441   0.00000
  56        5PZ         0.00000   0.00000   0.05877   0.00000   0.80378
  57        6D 0        0.00705   0.00120   0.00000   0.01774   0.00000
  58        6D+1        0.00000   0.00000  -0.00094   0.00000  -0.00031
  59        6D-1        0.00000   0.00000   0.00295   0.00000  -0.00039
  60        6D+2        0.01036   0.00200   0.00000   0.02941   0.00000
  61        6D-2        0.00247  -0.00054   0.00000   0.00449   0.00000
  62        7D 0       -0.04112  -0.01336   0.00000  -0.09765   0.00000
  63        7D+1        0.00000   0.00000  -0.06515   0.00000  -0.02996
  64        7D-1        0.00000   0.00000   0.06048   0.00000   0.01487
  65        7D+2       -0.04046  -0.01183   0.00000  -0.14934   0.00000
  66        7D-2       -0.00708   0.03002   0.00000  -0.02244   0.00000
  67 5   C  1S          0.04168   0.01271   0.00000   0.00479   0.00000
  68        2S          0.07358   0.02250   0.00000   0.00070   0.00000
  69        2PX        -0.05239   0.22914   0.00000   0.01431   0.00000
  70        2PY         0.05698   0.03264   0.00000  -0.23162   0.00000
  71        2PZ         0.00000   0.00000   0.09334   0.00000  -0.24671
  72        3S         -0.15543  -0.08237   0.00000   0.18193   0.00000
  73        3PX        -0.17778   0.85671   0.00000   0.02079   0.00000
  74        3PY         0.14309   0.13587   0.00000  -0.15284   0.00000
  75        3PZ         0.00000   0.00000   0.33016   0.00000  -0.72080
  76        4S         -4.14200  -0.38837   0.00000   0.73493   0.00000
  77        4PX         0.58398  -1.74644   0.00000  -0.17592   0.00000
  78        4PY        -2.28017  -0.56095   0.00000   3.30318   0.00000
  79        4PZ         0.00000   0.00000  -0.33987   0.00000   4.32468
  80        5S         -1.50522  -0.17349   0.00000  -0.61551   0.00000
  81        5PX        -0.21610   0.45283   0.00000   0.03043   0.00000
  82        5PY        -1.03536  -0.23623   0.00000   0.01983   0.00000
  83        5PZ         0.00000   0.00000  -0.31282   0.00000   1.46149
  84        6D 0        0.00707   0.00219   0.00000  -0.01559   0.00000
  85        6D+1        0.00000   0.00000  -0.00247   0.00000  -0.00022
  86        6D-1        0.00000   0.00000   0.01412   0.00000  -0.00722
  87        6D+2       -0.03246  -0.01183   0.00000  -0.01887   0.00000
  88        6D-2       -0.00580   0.01217   0.00000  -0.00223   0.00000
  89        7D 0        0.20987   0.04343   0.00000  -0.71319   0.00000
  90        7D+1        0.00000   0.00000  -0.77588   0.00000  -0.32238
  91        7D-1        0.00000   0.00000   0.15700   0.00000  -0.42128
  92        7D+2        0.02060  -0.02059   0.00000  -0.51400   0.00000
  93        7D-2       -0.02249   0.11545   0.00000  -0.09858   0.00000
                          36        37        38        39        40
                           V         V         V         V         V
     Eigenvalues --     0.75633   0.76282   0.77291   0.78295   0.79775
   1 1   H  1S         -0.03548  -0.00430   0.01690  -0.00389   0.00444
   2        2S         -0.75675   0.96798  -0.46350  -0.08658   0.38863
   3        3S         -0.12528   0.27022  -0.49208   0.03176  -0.04925
   4        4PX         0.00693   0.00448  -0.00559  -0.01345   0.03944
   5        4PY        -0.00238   0.04845  -0.00455  -0.00467   0.01980
   6        4PZ        -0.00338  -0.09297   0.05789   0.00023  -0.01341
   7 2   H  1S         -0.03548  -0.00430  -0.01690  -0.00389   0.00444
   8        2S         -0.75675   0.96798   0.46350  -0.08658   0.38863
   9        3S         -0.12528   0.27022   0.49208   0.03176  -0.04925
  10        4PX         0.00693   0.00448   0.00559  -0.01345   0.03944
  11        4PY        -0.00238   0.04845   0.00455  -0.00467   0.01980
  12        4PZ         0.00338   0.09297   0.05789  -0.00023   0.01341
  13 3   N  1S          0.00676  -0.00381   0.00000   0.00061  -0.00412
  14        2S          0.01174  -0.00840   0.00000   0.00115  -0.00769
  15        2PX         0.03633  -0.01795   0.00000  -0.10223   0.09904
  16        2PY        -0.09385  -0.11176   0.00000  -0.00635   0.00342
  17        2PZ         0.00000   0.00000  -0.10915   0.00000   0.00000
  18        3S         -0.12844   0.00143   0.00000  -0.00935   0.05299
  19        3PX         0.09973  -0.07712   0.00000  -0.39566   0.31259
  20        3PY        -0.13217  -0.04713   0.00000  -0.03223   0.03948
  21        3PZ         0.00000   0.00000  -0.40078   0.00000   0.00000
  22        4S          1.89246   2.61287   0.00000   0.01333   0.00595
  23        4PX        -0.11998  -0.13699   0.00000   0.77302   0.00462
  24        4PY         1.48339   2.10373   0.00000   0.02121  -0.11568
  25        4PZ         0.00000   0.00000   1.09027   0.00000   0.00000
  26        5S         -6.49348   3.86754   0.00000  -0.39565   1.82211
  27        5PX         0.65599  -0.25163   0.00000  -0.63665   0.94266
  28        5PY        -4.28681  -0.50177   0.00000  -0.18851   0.42637
  29        5PZ         0.00000   0.00000  -1.15276   0.00000   0.00000
  30        6D 0        0.01068  -0.01179   0.00000   0.00121  -0.00499
  31        6D+1        0.00000   0.00000  -0.00264   0.00000   0.00000
  32        6D-1        0.00000   0.00000   0.01820   0.00000   0.00000
  33        6D+2       -0.00626   0.00101   0.00000  -0.00101  -0.00531
  34        6D-2        0.00769  -0.00783   0.00000   0.00532   0.04070
  35        7D 0        0.19752  -0.40442   0.00000   0.03527  -0.15044
  36        7D+1        0.00000   0.00000  -0.00517   0.00000   0.00000
  37        7D-1        0.00000   0.00000  -0.26829   0.00000   0.00000
  38        7D+2       -0.45403  -0.25372   0.00000   0.01216   0.10263
  39        7D-2       -0.08422  -0.02567   0.00000  -0.22664  -0.10869
  40 4   N  1S          0.00233   0.01107   0.00000  -0.00029   0.00139
  41        2S          0.00600   0.02054   0.00000  -0.00045   0.00228
  42        2PX         0.00317   0.02305   0.00000  -0.21602  -0.09069
  43        2PY        -0.13268  -0.18418   0.00000  -0.01481  -0.01156
  44        2PZ         0.00000   0.00000  -0.21331   0.00000   0.00000
  45        3S         -0.01525  -0.02246   0.00000  -0.00018  -0.00504
  46        3PX         0.02203   0.03062   0.00000  -0.73539  -0.17584
  47        3PY        -0.18671  -0.35771   0.00000  -0.04839  -0.04533
  48        3PZ         0.00000   0.00000  -0.68940   0.00000   0.00000
  49        4S         -1.88304  -2.96639   0.00000   0.03264   0.03573
  50        4PX        -0.16340  -0.20478   0.00000   1.42117   0.27362
  51        4PY         1.58287   2.88730   0.00000   0.06778   0.10424
  52        4PZ         0.00000   0.00000   1.23578   0.00000   0.00000
  53        5S          8.46948  -1.35433   0.00000   0.37232  -1.32764
  54        5PX         0.05199   0.11072   0.00000  -0.56610  -0.56047
  55        5PY        -2.26928  -0.05149   0.00000  -0.13125   0.29740
  56        5PZ         0.00000   0.00000  -0.34711   0.00000   0.00000
  57        6D 0        0.00018  -0.01083   0.00000   0.00054  -0.00226
  58        6D+1        0.00000   0.00000  -0.00106   0.00000   0.00000
  59        6D-1        0.00000   0.00000   0.01165   0.00000   0.00000
  60        6D+2       -0.00518  -0.01549   0.00000  -0.00213  -0.00040
  61        6D-2       -0.00284  -0.00084   0.00000   0.01572  -0.00397
  62        7D 0        0.31261   0.01414   0.00000   0.02408  -0.11156
  63        7D+1        0.00000   0.00000  -0.01397   0.00000   0.00000
  64        7D-1        0.00000   0.00000  -0.03959   0.00000   0.00000
  65        7D+2        0.08007   0.31235   0.00000  -0.02113   0.10301
  66        7D-2       -0.05244   0.10579   0.00000   0.03544  -0.28593
  67 5   C  1S         -0.02815  -0.03031   0.00000  -0.00152  -0.00021
  68        2S         -0.05569  -0.05872   0.00000  -0.00290  -0.00023
  69        2PX         0.02229  -0.01088   0.00000   0.01545   0.06819
  70        2PY        -0.08000  -0.04942   0.00000  -0.00214   0.00640
  71        2PZ         0.00000   0.00000  -0.01959   0.00000   0.00000
  72        3S          0.37616   0.70542   0.00000   0.00602   0.07294
  73        3PX         0.09820  -0.01545   0.00000  -0.05879   0.21174
  74        3PY        -0.41584  -0.07818   0.00000  -0.03184   0.09412
  75        3PZ         0.00000   0.00000  -0.03092   0.00000   0.00000
  76        4S         -0.04836  -2.75360   0.00000   0.04125  -0.78295
  77        4PX        -0.34330   0.23003   0.00000  -0.25589  -0.72781
  78        4PY        -0.01963   0.76734   0.00000  -0.05095  -0.04114
  79        4PZ         0.00000   0.00000   0.49258   0.00000   0.00000
  80        5S         -1.16067  -1.64661   0.00000  -0.00991  -0.21446
  81        5PX        -0.06528   0.13534   0.00000   0.47680  -0.20651
  82        5PY        -0.11509  -0.61609   0.00000   0.06452  -0.16743
  83        5PZ         0.00000   0.00000   0.81580   0.00000   0.00000
  84        6D 0       -0.00211  -0.00616   0.00000  -0.00021  -0.00151
  85        6D+1        0.00000   0.00000  -0.00098   0.00000   0.00000
  86        6D-1        0.00000   0.00000  -0.00574   0.00000   0.00000
  87        6D+2        0.00212  -0.00378   0.00000   0.00085  -0.00149
  88        6D-2       -0.00241   0.00209   0.00000  -0.00112  -0.01377
  89        7D 0        0.50833  -0.67569   0.00000   0.04831  -0.18730
  90        7D+1        0.00000   0.00000  -0.01915   0.00000   0.00000
  91        7D-1        0.00000   0.00000  -0.71998   0.00000   0.00000
  92        7D+2       -0.41179   0.00027   0.00000   0.00690   0.22358
  93        7D-2       -0.25151   0.15316   0.00000  -0.14341  -1.00255
                          41        42        43        44        45
                           V         V         V         V         V
     Eigenvalues --     0.86062   0.86250   0.87195   0.87351   0.96553
   1 1   H  1S         -0.00265  -0.01937   0.00191   0.00044   0.00809
   2        2S         -0.61250   0.67567   0.25916  -0.02696   1.25025
   3        3S          0.75107  -0.49248   0.07545  -0.01113  -0.15818
   4        4PX         0.01276   0.00721  -0.07273  -0.00579  -0.00420
   5        4PY        -0.00579   0.08533   0.01721  -0.00807   0.03082
   6        4PZ         0.05165  -0.09485  -0.01274   0.00357  -0.06340
   7 2   H  1S          0.00265  -0.01937  -0.00191   0.00044   0.00809
   8        2S          0.61250   0.67567  -0.25916  -0.02696   1.25025
   9        3S         -0.75107  -0.49248  -0.07545  -0.01113  -0.15818
  10        4PX        -0.01276   0.00721   0.07273  -0.00579  -0.00420
  11        4PY         0.00579   0.08533  -0.01721  -0.00807   0.03082
  12        4PZ         0.05165   0.09485  -0.01274  -0.00357   0.06340
  13 3   N  1S          0.00000  -0.03302   0.00000   0.00184  -0.02835
  14        2S          0.00000  -0.06063   0.00000   0.00332  -0.05749
  15        2PX         0.00000  -0.02928   0.00000  -0.20005   0.00693
  16        2PY         0.00000   0.17445   0.00000  -0.02569   0.02193
  17        2PZ        -0.16612   0.00000  -0.07082   0.00000   0.00000
  18        3S          0.00000   0.35260   0.00000  -0.01625   0.56670
  19        3PX         0.00000  -0.07367   0.00000  -0.71651   0.03579
  20        3PY         0.00000   0.28694   0.00000  -0.07325   0.01640
  21        3PZ        -0.55634   0.00000  -0.26672   0.00000   0.00000
  22        4S          0.00000  -0.72609   0.00000   0.02639  -3.23965
  23        4PX         0.00000   0.69149   0.00000   2.33696  -0.07441
  24        4PY         0.00000  -6.90526   0.00000   0.59882   0.29486
  25        4PZ         2.14887   0.00000   0.71025   0.00000   0.00000
  26        5S          0.00000  -5.17792   0.00000   0.37518   6.65501
  27        5PX         0.00000   0.71384   0.00000  -1.93054  -0.11909
  28        5PY         0.00000 -10.99803   0.00000   0.53002   1.95710
  29        5PZ        -1.44591   0.00000  -0.54186   0.00000   0.00000
  30        6D 0        0.00000  -0.00498   0.00000   0.00031  -0.01161
  31        6D+1       -0.00380   0.00000   0.00828   0.00000   0.00000
  32        6D-1        0.02015   0.00000  -0.00181   0.00000   0.00000
  33        6D+2        0.00000  -0.00296   0.00000  -0.00259  -0.01749
  34        6D-2        0.00000  -0.00073   0.00000   0.01649   0.00100
  35        7D 0        0.00000   0.00723   0.00000   0.00505   0.38131
  36        7D+1       -0.14210   0.00000   0.56039   0.00000   0.00000
  37        7D-1        0.06667   0.00000   0.10253   0.00000   0.00000
  38        7D+2        0.00000  -0.01882   0.00000  -0.01376   0.12234
  39        7D-2        0.00000  -0.00123   0.00000   0.13564   0.01142
  40 4   N  1S          0.00000  -0.00158   0.00000   0.00038   0.00945
  41        2S          0.00000  -0.00125   0.00000   0.00056   0.01453
  42        2PX         0.00000  -0.00324   0.00000   0.06828  -0.00761
  43        2PY         0.00000   0.16380   0.00000  -0.00385   0.03914
  44        2PZ         0.09886   0.00000   0.02754   0.00000   0.00000
  45        3S          0.00000  -0.09552   0.00000   0.00289  -0.08300
  46        3PX         0.00000   0.01461   0.00000   0.28474   0.00239
  47        3PY         0.00000   0.23569   0.00000   0.00581  -0.11156
  48        3PZ         0.41136   0.00000   0.08797   0.00000   0.00000
  49        4S          0.00000   5.17655   0.00000  -0.29609   0.90066
  50        4PX         0.00000   0.15640   0.00000  -1.33951   0.05893
  51        4PY         0.00000  -3.50196   0.00000   0.10265  -0.49299
  52        4PZ        -1.51216   0.00000  -0.39325   0.00000   0.00000
  53        5S          0.00000  17.12619   0.00000  -1.08760  -5.52268
  54        5PX         0.00000   0.32128   0.00000   1.13466  -0.11996
  55        5PY         0.00000  -3.12631   0.00000   0.29417   1.49516
  56        5PZ         1.17526   0.00000   0.33053   0.00000   0.00000
  57        6D 0        0.00000   0.00315   0.00000  -0.00020   0.00160
  58        6D+1        0.00021   0.00000   0.00717   0.00000   0.00000
  59        6D-1       -0.02278   0.00000  -0.00434   0.00000   0.00000
  60        6D+2        0.00000   0.00473   0.00000   0.00287  -0.01050
  61        6D-2        0.00000  -0.00056   0.00000  -0.02104  -0.00217
  62        7D 0        0.00000  -0.25717   0.00000   0.01538   0.48482
  63        7D+1       -0.12544   0.00000   0.58893   0.00000   0.00000
  64        7D-1       -0.17889   0.00000   0.06827   0.00000   0.00000
  65        7D+2        0.00000  -0.36433   0.00000   0.03864  -0.48892
  66        7D-2        0.00000  -0.05484   0.00000  -0.11751  -0.10834
  67 5   C  1S          0.00000  -0.08930   0.00000   0.00590   0.00230
  68        2S          0.00000  -0.17744   0.00000   0.01173  -0.00154
  69        2PX         0.00000   0.00142   0.00000   0.00540   0.00561
  70        2PY         0.00000   0.02431   0.00000  -0.00128   0.04014
  71        2PZ         0.03979   0.00000  -0.00976   0.00000   0.00000
  72        3S          0.00000   1.53938   0.00000  -0.09921   0.26037
  73        3PX         0.00000   0.07836   0.00000  -0.05018  -0.00363
  74        3PY         0.00000  -0.37208   0.00000   0.03273   0.63178
  75        3PZ         0.27999   0.00000  -0.08334   0.00000   0.00000
  76        4S          0.00000 -12.04464   0.00000   0.75949  -0.19468
  77        4PX         0.00000   0.18986   0.00000  -0.48803   0.03766
  78        4PY         0.00000  -3.09718   0.00000   0.13159   1.15700
  79        4PZ        -0.56487   0.00000  -0.41681   0.00000   0.00000
  80        5S          0.00000  -5.83952   0.00000   0.37331  -0.50625
  81        5PX         0.00000   0.12683   0.00000   0.63974   0.01029
  82        5PY         0.00000  -1.29124   0.00000   0.11968  -0.61405
  83        5PZ         0.11143   0.00000   0.18113   0.00000   0.00000
  84        6D 0        0.00000   0.00348   0.00000  -0.00059  -0.02038
  85        6D+1        0.00044   0.00000  -0.00264   0.00000   0.00000
  86        6D-1       -0.00153   0.00000   0.00096   0.00000   0.00000
  87        6D+2        0.00000  -0.00428   0.00000   0.00011  -0.02121
  88        6D-2        0.00000   0.00044   0.00000  -0.00409  -0.00447
  89        7D 0        0.00000   0.01840   0.00000   0.00459  -1.03198
  90        7D+1        0.09849   0.00000  -0.27562   0.00000   0.00000
  91        7D-1       -0.78146   0.00000   0.13905   0.00000   0.00000
  92        7D+2        0.00000   0.31959   0.00000   0.05239   0.25369
  93        7D-2        0.00000   0.01187   0.00000  -0.45173  -0.09632
                          46        47        48        49        50
                           V         V         V         V         V
     Eigenvalues --     0.98933   1.00618   1.14052   1.23668   1.25369
   1 1   H  1S          0.00905   0.01161   0.02254   0.01093   0.02797
   2        2S          0.27000  -2.78087   0.67389  -0.39770  -0.12227
   3        3S         -0.26585   0.01034  -0.60262  -0.06280  -0.05045
   4        4PX         0.00352  -0.01967   0.00794  -0.20930  -0.00478
   5        4PY         0.00470  -0.13445  -0.03839  -0.03384   0.05044
   6        4PZ        -0.03483   0.11852  -0.00330  -0.02350   0.03782
   7 2   H  1S          0.00905  -0.01161   0.02254  -0.01093   0.02797
   8        2S          0.27000   2.78087   0.67389   0.39770  -0.12227
   9        3S         -0.26585  -0.01034  -0.60262   0.06280  -0.05045
  10        4PX         0.00352   0.01967   0.00794   0.20930  -0.00478
  11        4PY         0.00470   0.13445  -0.03839   0.03384   0.05044
  12        4PZ         0.03483   0.11852   0.00330  -0.02350  -0.03782
  13 3   N  1S          0.04769   0.00000   0.05940   0.00000  -0.04454
  14        2S          0.09830   0.00000   0.12786   0.00000  -0.09259
  15        2PX        -0.00483   0.00000   0.00554   0.00000   0.00455
  16        2PY         0.07530   0.00000  -0.06241   0.00000  -0.06430
  17        2PZ         0.00000   0.10490   0.00000   0.00904   0.00000
  18        3S         -0.91663   0.00000  -1.57869   0.00000   0.86857
  19        3PX         0.01747   0.00000  -0.00260   0.00000   0.00447
  20        3PY        -0.16375   0.00000   0.12341   0.00000  -0.06830
  21        3PZ         0.00000   0.51425   0.00000   0.04831   0.00000
  22        4S          6.37756   0.00000  12.16247   0.00000  -0.05898
  23        4PX        -0.00279   0.00000   0.21356   0.00000   0.76924
  24        4PY         0.02599   0.00000  -3.13631   0.00000  -9.41308
  25        4PZ         0.00000  -0.93596   0.00000  -0.18490   0.00000
  26        5S         -1.53210   0.00000 -14.86667   0.00000  16.26601
  27        5PX         0.17768   0.00000   0.66851   0.00000  -0.24185
  28        5PY        -2.17449   0.00000  -8.69362   0.00000   3.19057
  29        5PZ         0.00000  -0.10503   0.00000  -0.11596   0.00000
  30        6D 0        0.01424   0.00000   0.02820   0.00000  -0.00061
  31        6D+1        0.00000  -0.00456   0.00000   0.01041   0.00000
  32        6D-1        0.00000   0.03188   0.00000   0.00522   0.00000
  33        6D+2        0.02635   0.00000   0.05362   0.00000   0.00336
  34        6D-2        0.00450   0.00000   0.00963   0.00000  -0.00062
  35        7D 0       -0.10043   0.00000  -0.73555   0.00000   0.02759
  36        7D+1        0.00000   0.04892   0.00000   0.79661   0.00000
  37        7D-1        0.00000  -0.14824   0.00000   0.09232   0.00000
  38        7D+2       -0.17955   0.00000  -0.91459   0.00000   0.42450
  39        7D-2       -0.03365   0.00000  -0.13762   0.00000   0.04067
  40 4   N  1S          0.08030   0.00000  -0.06517   0.00000   0.02921
  41        2S          0.16320   0.00000  -0.12091   0.00000   0.06009
  42        2PX        -0.00269   0.00000   0.00423   0.00000   0.01081
  43        2PY         0.03447   0.00000  -0.07855   0.00000  -0.09174
  44        2PZ         0.00000  -0.03945   0.00000  -0.00896   0.00000
  45        3S         -1.20341   0.00000   0.94601   0.00000  -0.63710
  46        3PX        -0.01657   0.00000  -0.03821   0.00000   0.06302
  47        3PY         0.23817   0.00000   0.46732   0.00000  -0.67332
  48        3PZ         0.00000  -0.05080   0.00000  -0.02337   0.00000
  49        4S          0.10491   0.00000  -3.61380   0.00000   8.62038
  50        4PX        -0.06190   0.00000  -0.11284   0.00000   0.20393
  51        4PY         0.81437   0.00000   1.59766   0.00000  -3.02449
  52        4PZ         0.00000   0.38102   0.00000   0.07739   0.00000
  53        5S          0.87889   0.00000  19.07002   0.00000 -13.43264
  54        5PX        -0.01427   0.00000   0.37419   0.00000  -0.29573
  55        5PY         0.16035   0.00000  -4.82777   0.00000   3.91036
  56        5PZ         0.00000   0.06365   0.00000   0.04543   0.00000
  57        6D 0        0.00723   0.00000   0.01285   0.00000   0.00124
  58        6D+1        0.00000   0.00239   0.00000  -0.00555   0.00000
  59        6D-1        0.00000  -0.00239   0.00000  -0.00240   0.00000
  60        6D+2        0.01355   0.00000   0.01385   0.00000   0.00028
  61        6D-2        0.00207   0.00000   0.00160   0.00000   0.00098
  62        7D 0        0.23089   0.00000   0.52748   0.00000   0.08944
  63        7D+1        0.00000   0.23934   0.00000  -0.78781   0.00000
  64        7D-1        0.00000  -0.26370   0.00000  -0.10733   0.00000
  65        7D+2        0.27093   0.00000   0.22744   0.00000  -0.19225
  66        7D-2        0.03667   0.00000   0.01250   0.00000  -0.00708
  67 5   C  1S         -0.05026   0.00000   0.00366   0.00000   0.03690
  68        2S         -0.09893   0.00000   0.03059   0.00000   0.06852
  69        2PX        -0.00344   0.00000   0.01436   0.00000   0.01761
  70        2PY         0.09398   0.00000  -0.05403   0.00000  -0.24018
  71        2PZ         0.00000   0.07105   0.00000   0.01441   0.00000
  72        3S          1.01395   0.00000  -0.23057   0.00000  -0.41544
  73        3PX         0.02641   0.00000   0.13135   0.00000   0.05126
  74        3PY        -0.10883   0.00000  -1.44068   0.00000  -0.81030
  75        3PZ         0.00000   0.73432   0.00000   0.07585   0.00000
  76        4S         -4.90695   0.00000  -9.94486   0.00000  -8.74936
  77        4PX         0.18052   0.00000   0.32217   0.00000   0.32286
  78        4PY        -2.47757   0.00000  -3.83538   0.00000  -4.83227
  79        4PZ         0.00000   2.99758   0.00000   0.58347   0.00000
  80        5S          0.63392   0.00000  -1.51001   0.00000  -1.22481
[...]
  71        2PZ         0.00000   0.00000   0.00000   0.00000   0.00000
  72        3S          0.00000  -0.00002   0.00000   0.00000  -0.00006
  73        3PX         0.00000   0.00000   0.00000   0.00000   0.00001
  74        3PY         0.00000  -0.00003   0.00000   0.00000  -0.00008
  75        3PZ         0.00000   0.00000   0.00000   0.00003   0.00000
  76        4S          0.00000  -0.00005   0.00000   0.00000  -0.00019
  77        4PX        -0.00001   0.00000   0.00000   0.00000   0.00001
  78        4PY         0.00000  -0.00003   0.00000   0.00000  -0.00009
  79        4PZ         0.00000   0.00000   0.00000  -0.00020   0.00000
  80        5S          0.00000   0.00001   0.00000   0.00000   0.00002
  81        5PX         0.00000   0.00000   0.00000   0.00000   0.00000
  82        5PY         0.00000   0.00000   0.00000   0.00000   0.00000
  83        5PZ         0.00000   0.00000   0.00000  -0.00001   0.00000
  84        6D 0        0.00000   0.00000   0.00000   0.00000   0.00000
  85        6D+1        0.00000   0.00000   0.00000   0.00000   0.00000
  86        6D-1        0.00000   0.00000   0.00000   0.00000   0.00000
  87        6D+2        0.00000   0.00000   0.00000   0.00000   0.00000
  88        6D-2        0.00000   0.00000   0.00000   0.00000   0.00000
  89        7D 0        0.00000   0.00001   0.00000   0.00000   0.00002
  90        7D+1        0.00000   0.00000   0.00000   0.00000   0.00000
  91        7D-1        0.00000   0.00000   0.00000   0.00036   0.00000
  92        7D+2        0.00000   0.00001   0.00000   0.00000   0.00001
  93        7D-2        0.00000   0.00000   0.00000   0.00000   0.00001
                          66        67        68        69        70
  66        7D-2        0.00242
  67 5   C  1S          0.00000   0.65789
  68        2S          0.00000   0.49027   0.48591
  69        2PX         0.00000   0.00000   0.00000   0.08989
  70        2PY         0.00000   0.00000   0.00000   0.00000   0.07258
  71        2PZ         0.00000   0.00000   0.00000   0.00000   0.00000
  72        3S          0.00000  -0.02295  -0.05350   0.00000   0.00000
  73        3PX         0.00011   0.00000   0.00000   0.08650   0.00000
  74        3PY         0.00000   0.00000   0.00000   0.00000   0.06195
  75        3PZ         0.00000   0.00000   0.00000   0.00000   0.00000
  76        4S          0.00001  -0.00755  -0.01605   0.00000   0.00000
  77        4PX         0.00024   0.00000   0.00000   0.02950   0.00000
  78        4PY         0.00000   0.00000   0.00000   0.00000   0.00841
  79        4PZ         0.00000   0.00000   0.00000   0.00000   0.00000
  80        5S          0.00000  -0.00093  -0.00144   0.00000   0.00000
  81        5PX         0.00000   0.00000   0.00000   0.00157   0.00000
  82        5PY         0.00000   0.00000   0.00000   0.00000   0.00020
  83        5PZ         0.00000   0.00000   0.00000   0.00000   0.00000
  84        6D 0        0.00000   0.00000   0.00000   0.00000   0.00000
  85        6D+1        0.00000   0.00000   0.00000   0.00000   0.00000
  86        6D-1        0.00000   0.00000   0.00000   0.00000   0.00000
  87        6D+2        0.00000   0.00000   0.00000   0.00000   0.00000
  88        6D-2        0.00000   0.00000   0.00000   0.00000   0.00000
  89        7D 0        0.00000   0.00000   0.00000   0.00000   0.00000
  90        7D+1        0.00000   0.00000   0.00000   0.00000   0.00000
  91        7D-1        0.00000   0.00000   0.00000   0.00000   0.00000
  92        7D+2        0.00001   0.00000   0.00000   0.00000   0.00000
  93        7D-2        0.00017   0.00000   0.00000   0.00000   0.00000
                          71        72        73        74        75
  71        2PZ         0.08817
  72        3S          0.00000   0.38592
  73        3PX         0.00000   0.00000   0.21039
  74        3PY         0.00000   0.00000   0.00000   0.13376
  75        3PZ         0.07545   0.00000   0.00000   0.00000   0.16339
  76        4S          0.00000   0.19195   0.00000   0.00000   0.00000
  77        4PX         0.00000   0.00000   0.13345   0.00000   0.00000
  78        4PY         0.00000   0.00000   0.00000   0.03391   0.00000
  79        4PZ         0.01517   0.00000   0.00000   0.00000   0.06067
  80        5S          0.00000   0.01488   0.00000   0.00000   0.00000
  81        5PX         0.00000   0.00000   0.00940   0.00000   0.00000
  82        5PY         0.00000   0.00000   0.00000   0.00102   0.00000
  83        5PZ         0.00059   0.00000   0.00000   0.00000   0.00316
  84        6D 0        0.00000   0.00000   0.00000   0.00000   0.00000
  85        6D+1        0.00000   0.00000   0.00000   0.00000   0.00000
  86        6D-1        0.00000   0.00000   0.00000   0.00000   0.00000
  87        6D+2        0.00000   0.00000   0.00000   0.00000   0.00000
  88        6D-2        0.00000   0.00000   0.00000   0.00000   0.00000
  89        7D 0        0.00000   0.00000   0.00000   0.00000   0.00000
  90        7D+1        0.00000   0.00000   0.00000   0.00000   0.00000
  91        7D-1        0.00000   0.00000   0.00000   0.00000   0.00000
  92        7D+2        0.00000   0.00000   0.00000   0.00000   0.00000
  93        7D-2        0.00000   0.00000   0.00000   0.00000   0.00000
                          76        77        78        79        80
  76        4S          0.18667
  77        4PX         0.00000   0.20571
  78        4PY         0.00000   0.00000   0.02125
  79        4PZ         0.00000   0.00000   0.00000   0.05680
  80        5S          0.01829   0.00000   0.00000   0.00000   0.00542
  81        5PX         0.00000   0.02789   0.00000   0.00000   0.00000
  82        5PY         0.00000   0.00000   0.00087   0.00000   0.00000
  83        5PZ         0.00000   0.00000   0.00000   0.00544   0.00000
  84        6D 0        0.00000   0.00000   0.00000   0.00000   0.00000
  85        6D+1        0.00000   0.00000   0.00000   0.00000   0.00000
  86        6D-1        0.00000   0.00000   0.00000   0.00000   0.00000
  87        6D+2        0.00000   0.00000   0.00000   0.00000   0.00000
  88        6D-2        0.00000   0.00000   0.00000   0.00000   0.00000
  89        7D 0        0.00000   0.00000   0.00000   0.00000   0.00000
  90        7D+1        0.00000   0.00000   0.00000   0.00000   0.00000
  91        7D-1        0.00000   0.00000   0.00000   0.00000   0.00000
  92        7D+2        0.00000   0.00000   0.00000   0.00000   0.00000
  93        7D-2        0.00000   0.00000   0.00000   0.00000   0.00000
                          81        82        83        84        85
  81        5PX         0.00898
  82        5PY         0.00000   0.00074
  83        5PZ         0.00000   0.00000   0.00123
  84        6D 0        0.00000   0.00000   0.00000   0.00051
  85        6D+1        0.00000   0.00000   0.00000   0.00000   0.00001
  86        6D-1        0.00000   0.00000   0.00000   0.00000   0.00000
  87        6D+2        0.00000   0.00000   0.00000   0.00000   0.00000
  88        6D-2        0.00000   0.00000   0.00000   0.00000   0.00000
  89        7D 0        0.00000   0.00000   0.00000   0.00010   0.00000
  90        7D+1        0.00000   0.00000   0.00000   0.00000   0.00001
  91        7D-1        0.00000   0.00000   0.00000   0.00000   0.00000
  92        7D+2        0.00000   0.00000   0.00000   0.00000   0.00000
  93        7D-2        0.00000   0.00000   0.00000   0.00000   0.00000
                          86        87        88        89        90
  86        6D-1        0.00051
  87        6D+2        0.00000   0.00069
  88        6D-2        0.00000   0.00000   0.00046
  89        7D 0        0.00000   0.00000   0.00000   0.00022
  90        7D+1        0.00000   0.00000   0.00000   0.00000   0.00002
  91        7D-1        0.00055   0.00000   0.00000   0.00000   0.00000
  92        7D+2        0.00000   0.00022   0.00000   0.00000   0.00000
  93        7D-2        0.00000   0.00000   0.00031   0.00000   0.00000
                          91        92        93
  91        7D-1        0.00476
  92        7D+2        0.00000   0.00042
  93        7D-2        0.00000   0.00000   0.00125
     Gross orbital populations:
                           1
   1 1   H  1S          0.26976
   2        2S          0.50268
   3        3S          0.05248
   4        4PX         0.00898
   5        4PY         0.00608
   6        4PZ         0.01417
   7 2   H  1S          0.26976
   8        2S          0.50268
   9        3S          0.05248
  10        4PX         0.00898
  11        4PY         0.00608
  12        4PZ         0.01417
  13 3   N  1S          1.09524
  14        2S          0.89617
  15        2PX         0.24372
  16        2PY         0.27773
  17        2PZ         0.24103
  18        3S          0.90117
  19        3PX         0.57133
  20        3PY         0.61988
  21        3PZ         0.55478
  22        4S          0.47834
  23        4PX         0.38114
  24        4PY         0.04918
  25        4PZ         0.35942
  26        5S         -0.09872
  27        5PX        -0.00879
  28        5PY        -0.01279
  29        5PZ         0.00992
  30        6D 0        0.00077
  31        6D+1        0.00001
  32        6D-1        0.00198
  33        6D+2        0.00250
  34        6D-2        0.00490
  35        7D 0        0.00138
  36        7D+1        0.00015
  37        7D-1        0.03574
  38        7D+2        0.00745
  39        7D-2        0.08361
  40 4   N  1S          1.09592
  41        2S          0.89539
  42        2PX         0.29238
  43        2PY         0.23987
  44        2PZ         0.15305
  45        3S          0.98226
  46        3PX         0.62769
  47        3PY         0.53514
  48        3PZ         0.36098
  49        4S          0.96121
  50        4PX         0.47175
  51        4PY         0.20396
  52        4PZ         0.27511
  53        5S         -0.03844
  54        5PX         0.03194
  55        5PY         0.05295
  56        5PZ         0.00433
  57        6D 0        0.00130
  58        6D+1        0.00001
  59        6D-1        0.00222
  60        6D+2        0.00387
  61        6D-2        0.00194
  62        7D 0        0.00356
  63        7D+1        0.00013
  64        7D-1        0.02286
  65        7D+2        0.01066
  66        7D-2        0.02112
  67 5   C  1S          1.10353
  68        2S          0.88508
  69        2PX         0.22444
  70        2PY         0.20251
  71        2PZ         0.23303
  72        3S          0.73146
  73        3PX         0.51905
  74        3PY         0.44210
  75        3PZ         0.51057
  76        4S          0.48986
  77        4PX         0.44126
  78        4PY         0.12657
  79        4PZ         0.25301
  80        5S          0.06281
  81        5PX         0.03911
  82        5PY         0.01484
  83        5PZ         0.01830
  84        6D 0        0.00421
  85        6D+1        0.00008
  86        6D-1        0.00474
  87        6D+2        0.00542
  88        6D-2        0.00327
  89        7D 0        0.00408
  90        7D+1        0.00025
  91        7D-1        0.03734
  92        7D+2        0.00667
  93        7D-2        0.01771
          Condensed to atoms (all electrons):
               1          2          3          4          5
     1  H    0.502088  -0.028619  -0.028276  -0.013276   0.422228
     2  H   -0.028619   0.502088  -0.028276  -0.013276   0.422228
     3  N   -0.028276  -0.028276   5.576666   0.677756   0.499360
     4  N   -0.013276  -0.013276   0.677756   6.646610  -0.084638
     5  C    0.422228   0.422228   0.499360  -0.084638   5.122122
 Mulliken charges:
               1
     1  H    0.145854
     2  H    0.145854
     3  N    0.302770
     4  N   -0.213177
     5  C   -0.381300
 Sum of Mulliken charges =   0.00000
 Mulliken charges with hydrogens summed into heavy atoms:
               1
     3  N    0.302770
     4  N   -0.213177
     5  C   -0.089593
 Electronic spatial extent (au):  <R**2>=            140.7622
 Charge=              0.0000 electrons
 Dipole moment (field-independent basis, Debye):
    X=             -0.0515    Y=             -2.2756    Z=              0.0000  Tot=              2.2762
 Quadrupole moment (field-independent basis, Debye-Ang):
   XX=            -19.4172   YY=            -18.2953   ZZ=            -15.8155
   XY=              0.3263   XZ=              0.0000   YZ=              0.0000
 Traceless Quadrupole moment (field-independent basis, Debye-Ang):
   XX=             -1.5745   YY=             -0.4526   ZZ=              2.0271
   XY=              0.3263   XZ=              0.0000   YZ=              0.0000
 Octapole moment (field-independent basis, Debye-Ang**2):
  XXX=             -0.5142  YYY=             -7.7858  ZZZ=              0.0000  XYY=             -0.1272
  XXY=              1.1158  XXZ=              0.0000  XZZ=             -0.1493  YZZ=             -1.7899
  YYZ=              0.0000  XYZ=              0.0000
 Hexadecapole moment (field-independent basis, Debye-Ang**3):
 XXXX=            -21.8781 YYYY=           -147.4378 ZZZZ=            -20.9155 XXXY=              5.2845
 XXXZ=              0.0000 YYYX=              4.7724 YYYZ=              0.0000 ZZZX=              0.0000
 ZZZY=              0.0000 XXYY=            -32.1011 XXZZ=             -7.5433 YYZZ=            -23.5689
 XXYZ=              0.0000 YYXZ=              0.0000 ZZXY=              1.4839
 N-N= 5.956868758496D+01 E-N=-4.656210316791D+02  KE= 1.478095531334D+02
 Symmetry A'   KE= 1.423630336843D+02
 Symmetry A"   KE= 5.446519449018D+00
 Orbital energies and kinetic energies (alpha):
                                 1                 2
   1         O               -14.497431         22.065881
   2         O               -14.432558         22.072352
   3         O               -10.245519         15.961672
   4         O                -1.080926          2.301265
   5         O                -0.869340          2.063654
   6         O                -0.592061          1.502486
   7         O                -0.528160          1.225805
   8         O                -0.470198          1.579242
   9         O                -0.462155          2.124676
  10         O                -0.390936          1.497455
  11         O                -0.244784          1.510290
  12         V                -0.076998          1.937828
  13         V                -0.011821          1.579812
  14         V                 0.011072          0.310450
  15         V                 0.050231          0.229955
  16         V                 0.050484          0.261374
  17         V                 0.079484          0.625929
  18         V                 0.108077          0.435228
  19         V                 0.139104          0.428164
  20         V                 0.144540          0.641568
  21         V                 0.149816          0.428594
  22         V                 0.188047          1.066579
  23         V                 0.214705          0.474876
  24         V                 0.220646          0.469708
  25         V                 0.224625          0.449531
  26         V                 0.230220          0.846665
  27         V                 0.253133          1.814349
  28         V                 0.297344          0.751628
  29         V                 0.377659          1.242070
  30         V                 0.504359          1.206437
  31         V                 0.509289          1.428087
  32         V                 0.548861          1.523438
  33         V                 0.564093          1.278768
  34         V                 0.645064          1.982044
  35         V                 0.668375          1.544802
  36         V                 0.756329          1.744351
  37         V                 0.762815          1.813130
  38         V                 0.772909          1.923395
  39         V                 0.782951          1.936312
  40         V                 0.797749          1.621802
  41         V                 0.860616          1.822143
  42         V                 0.862502          2.673458
  43         V                 0.871949          1.572687
  44         V                 0.873511          1.893292
  45         V                 0.965534          1.673795
  46         V                 0.989326          2.878836
  47         V                 1.006176          1.764848
  48         V                 1.140522          2.633434
  49         V                 1.236680          1.897246
  50         V                 1.253688          2.750909
  51         V                 1.263280          2.142485
  52         V                 1.293830          2.597429
  53         V                 1.351321          2.219797
  54         V                 1.396260          2.178484
  55         V                 1.677451          2.558875
  56         V                 1.687009          2.355101
  57         V                 1.797456          2.845653
  58         V                 1.884218          2.548091
  59         V                 1.934407          3.504174
  60         V                 2.095263          3.501352
  61         V                 2.116125          3.408343
  62         V                 2.334308          3.681441
  63         V                 2.344134          3.587755
  64         V                 2.559012          4.477217
  65         V                 2.643463          4.053866
  66         V                 2.809464          6.045553
  67         V                 2.860437          4.867381
  68         V                 3.190083          5.403057
  69         V                 3.272472          5.796741
  70         V                 3.385770          5.801196
  71         V                 3.437046          6.317002
  72         V                 3.541683          6.078928
  73         V                 3.815094          8.325396
  74         V                 3.855157          8.636120
  75         V                 3.959384          8.956244
  76         V                 3.964298          8.945335
  77         V                 3.975478          7.118565
  78         V                 4.117264          6.264076
  79         V                 4.411569          8.989019
  80         V                 4.662909          7.140091
  81         V                 4.668704          7.175966
  82         V                 4.715294          7.951404
  83         V                 4.793291          7.255284
  84         V                 4.808533          7.313003
  85         V                 4.874586          7.323775
  86         V                 4.924958          7.386711
  87         V                 5.116132          7.668017
  88         V                 5.225713          7.761470
  89         V                 5.291134          9.273887
  90         V                 5.820410          8.896698
  91         V                24.237075         60.531712
  92         V                35.429775         89.059835
  93         V                35.771910         88.965870
 Total kinetic energy from orbitals= 1.478095531334D+02
 1|1|UNPC-DESKTOP-KC5UJLK|SP|RAPFD|6-311+G(2d,p)|C1H2N2|23122|05-Feb-20
 22|0||# apfd/6-311+g(2d,p) geom=connectivity pop=full int=ultrafine||E
 nergy Calculation(GC)||0,1|H,0,-0.06930332,-1.6831844,0.92571539|H,0,-
 0.06930332,-1.6831844,-0.92571539|N,0,0.00754899,0.11933577,0.|N,0,-0.
 00801458,1.35123746,0.|C,0,0.0236443,-1.1546073,0.||Version=IA32W-G09R
 evD.01|State=1-A'|HF=-148.6411184|RMSD=4.782e-009|Dipole=-0.0767529,-0
 .8922142,0.|Quadrupole=-1.1367221,-0.370401,1.5071231,0.2932142,0.,0.|
 PG=CS [SG(C1N2),X(H2)]||@


 SIGN SEEN IN A RESTAURANT-
 WE RESERVE THE RIGHT TO SERVE REFUSE TO ANYONE.
 Job cpu time:       0 days  0 hours  0 minutes 17.0 seconds.
 File lengths (MBytes):  RWF=      5 Int=      0 D2E=      0 Chk=      1 Scr=      1
 Normal termination of Gaussian 09 at Sat Feb 05 07:41:52 2022.
