 Entering Link 1 = C:\G09W\l1.exe PID=      1984.
  
 Copyright (c) 1988,1990,1992,1993,1995,1998,2003,2009,2013,
            Gaussian, Inc.  All Rights Reserved.
  
 This is part of the Gaussian(R) 09 program.  It is based on
 the Gaussian(R) 03 system (copyright 2003, Gaussian, Inc.),
 the Gaussian(R) 98 system (copyright 1998, Gaussian, Inc.),
 the Gaussian(R) 94 system (copyright 1995, Gaussian, Inc.),
 the Gaussian 92(TM) system (copyright 1992, Gaussian, Inc.),
 the Gaussian 90(TM) system (copyright 1990, Gaussian, Inc.),
 the Gaussian 88(TM) system (copyright 1988, Gaussian, Inc.),
 the Gaussian 86(TM) system (copyright 1986, Carnegie Mellon
 University), and the Gaussian 82(TM) system (copyright 1983,
 Carnegie Mellon University). Gaussian is a federally registered
 trademark of Gaussian, Inc.
  
 This software contains proprietary and confidential information,
 including trade secrets, belonging to Gaussian, Inc.
  
 This software is provided under written license and may be
 used, copied, transmitted, or stored only in accord with that
 written license.
  
 The following legend is applicable only to US Government
 contracts under FAR:
  
                    RESTRICTED RIGHTS LEGEND
  
 Use, reproduction and disclosure by the US Government is
 subject to restrictions as set forth in subparagraphs (a)
 and (c) of the Commercial Computer Software - Restricted
 Rights clause in FAR 52.227-19.
  
 Gaussian, Inc.
 340 Quinnipiac St., Bldg. 40, Wallingford CT 06492
  
  
 ---------------------------------------------------------------
 Warning -- This program may not be used in any manner that
 competes with the business of Gaussian, Inc. or will provide
 assistance to any competitor of Gaussian, Inc.  The licensee
 of this program is prohibited from giving any competitor of
 Gaussian, Inc. access to this program.  By using this program,
 the user acknowledges that Gaussian, Inc. is engaged in the
 business of creating and licensing software in the field of
 computational chemistry and represents and warrants to the
 licensee that it is not a competitor of Gaussian, Inc. and that
 it will not use this program in any manner prohibited above.
 ---------------------------------------------------------------
  

 Cite this work as:
 Gaussian 09, Revision D.01,
 M. J. Frisch, G. W. Trucks, H. B. Schlegel, G. E. Scuseria, 
 M. A. Robb, J. R. Cheeseman, G. Scalmani, V. Barone, B. Mennucci, 
 G. A. Petersson, H. Nakatsuji, M. Caricato, X. Li, H. P. Hratchian, 
 A. F. Izmaylov, J. Bloino, G. Zheng, J. L. Sonnenberg, M. Hada, 
 M. Ehara, K. Toyota, R. Fukuda, J. Hasegawa, M. Ishida, T. Nakajima, 
 Y. Honda, O. Kitao, H. Nakai, T. Vreven, J. A. Montgomery, Jr., 
 J. E. Peralta, F. Ogliaro, M. Bearpark, J. J. Heyd, E. Brothers, 
 K. N. Kudin, V. N. Staroverov, T. Keith, R. Kobayashi, J. Normand, 
 K. Raghavachari, A. Rendell, J. C. Burant, S. S. Iyengar, J. Tomasi, 
 M. Cossi, N. Rega, J. M. Millam, M. Klene, J. E. Knox, J. B. Cross, 
 V. Bakken, C. Adamo, J. Jaramillo, R. Gomperts, R. E. Stratmann, 
 O. Yazyev, A. J. Austin, R. Cammi, C. Pomelli, J. W. Ochterski, 
 R. L. Martin, K. Morokuma, V. G. Zakrzewski, G. A. Voth, 
 P. Salvador, J. J. Dannenberg, S. Dapprich, A. D. Daniels, 
 O. Farkas, J. B. Foresman, J. V. Ortiz, J. Cioslowski, 
 and D. J. Fox, Gaussian, Inc., Wallingford CT, 2013.
 
 ******************************************
 Gaussian 09:  IA32W-G09RevD.01 24-Apr-2013
                15-Mar-2022 
 ******************************************
 %nprocshared=4
 Will use up to    4 processors via shared memory.
 %mem=1GB
 --------------------------------------------
 # opt=(calcfc,ts) freq pm6 geom=connectivity
 --------------------------------------------
 1/5=1,10=4,14=-1,18=20,26=1,38=1,57=2/1,3;
 2/9=110,12=2,17=6,18=5,40=1/2;
 3/5=2,16=1,25=1,41=3900000,71=2,140=1/1,2,3;
 4/35=1/1;
 5/5=2,35=1,38=5/2;
 8/6=4,10=90,11=11/1;
 11/6=1,8=1,9=11,15=111,16=1/1,2,10;
 10/6=1,13=1/2;
 6/7=2,8=2,9=2,10=2,28=1/1;
 7/10=1,18=20,25=1/1,2,3,16;
 1/5=1,10=4,14=-1,18=20,26=1/3(2);
 2/9=110/2;
 99//99;
 2/9=110/2;
 3/5=2,16=1,25=1,41=3900000,71=1,135=20/1,2,3;
 4/5=5,16=3,35=1/1;
 5/5=2,35=1,38=5/2;
 7//1,2,3,16;
 1/5=1,14=-1,18=20,26=1/3(-5);
 2/9=110/2;
 6/7=2,8=2,9=2,10=2,19=2,28=1/1;
 99/9=1/99;
 ----------------------
 Energy Calculation(GC)
 ----------------------
 Symbolic Z-matrix:
 Charge = -1 Multiplicity = 1
 O                    -0.13507   0.31764   0.44226 
 H                     0.01724   0.42373  -0.46443 
 O                    -2.44475   0.14297   0.06749 
 H                    -1.48475   0.14297   0.06749 
 H                    -2.7652    1.0479    0.06749 
 
 Add virtual bond connecting atoms H4         and O1         Dist= 2.67D+00.

 GradGradGradGradGradGradGradGradGradGradGradGradGradGradGradGradGradGrad
 Berny optimization.
 Initialization pass.
                           ----------------------------
                           !    Initial Parameters    !
                           ! (Angstroms and Degrees)  !
 --------------------------                            --------------------------
 ! Name  Definition              Value          Derivative Info.                !
 --------------------------------------------------------------------------------
 ! R1    R(1,2)                  0.9255         calculate D2E/DX2 analytically  !
 ! R2    R(1,4)                  1.4116         calculate D2E/DX2 analytically  !
 ! R3    R(3,4)                  0.96           calculate D2E/DX2 analytically  !
 ! R4    R(3,5)                  0.96           calculate D2E/DX2 analytically  !
 ! A1    A(2,1,4)               84.9194         calculate D2E/DX2 analytically  !
 ! A2    A(4,3,5)              109.5            calculate D2E/DX2 analytically  !
 ! A3    A(1,4,3)              162.9677         calculate D2E/DX2 analytically  !
 ! D1    D(2,1,4,3)           -148.6804         calculate D2E/DX2 analytically  !
 ! D2    D(5,3,4,1)             65.0105         calculate D2E/DX2 analytically  !
 --------------------------------------------------------------------------------
 Trust Radius=3.00D-01 FncErr=1.00D-07 GrdErr=1.00D-07
 Number of steps in this run=     20 maximum allowed number of steps=    100.
 Search for a saddle point of order  1.
 GradGradGradGradGradGradGradGradGradGradGradGradGradGradGradGradGradGrad

                          Input orientation:                          
 ---------------------------------------------------------------------
 Center     Atomic      Atomic             Coordinates (Angstroms)
 Number     Number       Type             X           Y           Z
 ---------------------------------------------------------------------
      1          8           0       -0.135068    0.317639    0.442255
      2          1           0        0.017241    0.423729   -0.464429
      3          8           0       -2.444747    0.142967    0.067491
      4          1           0       -1.484747    0.142967    0.067491
      5          1           0       -2.765202    1.047903    0.067491
 ---------------------------------------------------------------------
                    Distance matrix (angstroms):
                    1          2          3          4          5
     1  O    0.000000
     2  H    0.925489   0.000000
     3  O    2.346397   2.534395   0.000000
     4  H    1.411593   1.617942   0.960000   0.000000
     5  H    2.755239   2.900780   0.960000   1.567952   0.000000
 Stoichiometry    H3O2(1-)
 Framework group  C1[X(H3O2)]
 Deg. of freedom     9
 Full point group                 C1      NOp   1
 Largest Abelian subgroup         C1      NOp   1
 Largest concise Abelian subgroup C1      NOp   1
                         Standard orientation:                         
 ---------------------------------------------------------------------
 Center     Atomic      Atomic             Coordinates (Angstroms)
 Number     Number       Type             X           Y           Z
 ---------------------------------------------------------------------
      1          8           0        1.194845   -0.069505    0.084660
      2          1           0        1.245653    0.624151   -0.525905
      3          8           0       -1.146487   -0.077464   -0.069224
      4          1           0       -0.193132   -0.023773   -0.168371
      5          1           0       -1.439382    0.575375    0.570787
 ---------------------------------------------------------------------
 Rotational constants (GHZ):    307.4193646     10.4479290     10.4309948
 Standard basis: VSTO-6G (5D, 7F)
 There are    11 symmetry adapted cartesian basis functions of A   symmetry.
 There are    11 symmetry adapted basis functions of A   symmetry.
    11 basis functions,    66 primitive gaussians,    11 cartesian basis functions
     8 alpha electrons        8 beta electrons
       nuclear repulsion energy        41.9234336326 Hartrees.
 Integral buffers will be    262144 words long.
 Regular integral format.
 Two-electron integral symmetry is turned off.
 Do NDO integrals.
 One-electron integrals computed using PRISM.
 NBasis=    11 RedAO= F EigKep=  0.00D+00  NBF=    11
 NBsUse=    11 1.00D-04 EigRej=  0.00D+00 NBFU=    11
 Simple Huckel Guess.
 Overlap will be assumed to be unity.
 Keep J ints in memory in canonical form, NReq=879109.
 Requested convergence on RMS density matrix=1.00D-08 within 128 cycles.
 Requested convergence on MAX density matrix=1.00D-06.
 Requested convergence on             energy=1.00D-06.
 No special actions if energy rises.
 SCF Done:  E(RPM6) = -0.172932980128     A.U. after   10 cycles
            NFock= 10  Conv=0.85D-08     -V/T= 0.9751
 Range of M.O.s used for correlation:     1    11
 NBasis=    11 NAE=     8 NBE=     8 NFC=     0 NFV=     0
 NROrb=     11 NOA=     8 NOB=     8 NVA=     3 NVB=     3
 Symmetrizing basis deriv contribution to polar:
 IMax=3 JMax=2 DiffMx= 0.00D+00
 G2DrvN: will do     6 centers at a time, making    1 passes.
 Calling FoFCou, ICntrl=  3107 FMM=F I1Cent=   0 AccDes= 0.00D+00.
 End of G2Drv F.D. properties file   721 does not exist.
 End of G2Drv F.D. properties file   722 does not exist.
 End of G2Drv F.D. properties file   788 does not exist.
          IDoAtm=11111
          Differentiating once with respect to nuclear coordinates.
          Electric field/nuclear overlap derivatives assumed to be zero.
 Keep J ints in memory in canonical form, NReq=861170.
          There are    18 degrees of freedom in the 1st order CPHF.  IDoFFX=5 NUNeed=    18.
 LinEq1:  Iter=  0 NonCon=    15 RMS=5.59D-02 Max=1.66D-01 NDo=    15
 AX will form    18 AO Fock derivatives at one time.
 LinEq1:  Iter=  1 NonCon=    15 RMS=6.12D-03 Max=1.78D-02 NDo=    18
 LinEq1:  Iter=  2 NonCon=    15 RMS=4.86D-04 Max=1.20D-03 NDo=    18
 LinEq1:  Iter=  3 NonCon=    15 RMS=4.05D-05 Max=1.24D-04 NDo=    18
 LinEq1:  Iter=  4 NonCon=    15 RMS=3.05D-06 Max=8.73D-06 NDo=    18
 LinEq1:  Iter=  5 NonCon=    15 RMS=2.45D-07 Max=6.29D-07 NDo=    18
 LinEq1:  Iter=  6 NonCon=     9 RMS=1.44D-08 Max=4.03D-08 NDo=    18
 LinEq1:  Iter=  7 NonCon=     0 RMS=1.26D-09 Max=2.87D-09 NDo=    18
 Linear equations converged to 1.000D-08 1.000D-07 after     7 iterations.
 End of Minotr F.D. properties file   721 does not exist.
 End of Minotr F.D. properties file   722 does not exist.
 End of Minotr F.D. properties file   788 does not exist.

 **********************************************************************

            Population analysis using the SCF density.

 **********************************************************************

 Orbital symmetries:
       Occupied  (A) (A) (A) (A) (A) (A) (A) (A)
       Virtual   (A) (A) (A)
 The electronic state is 1-A.
 Alpha  occ. eigenvalues --   -0.86874  -0.71621  -0.46471  -0.29906  -0.27200
 Alpha  occ. eigenvalues --   -0.21494  -0.13698  -0.13364
 Alpha virt. eigenvalues --    0.38454   0.47282   0.50595
          Condensed to atoms (all electrons):
               1          2          3          4          5
     1  O    7.102271   0.000000   0.000000   0.000000   0.000000
     2  H    0.000000   0.746590   0.000000   0.000000   0.000000
     3  O    0.000000   0.000000   6.808061   0.000000   0.000000
     4  H    0.000000   0.000000   0.000000   0.629568   0.000000
     5  H    0.000000   0.000000   0.000000   0.000000   0.713510
 Mulliken charges:
               1
     1  O   -1.102271
     2  H    0.253410
     3  O   -0.808061
     4  H    0.370432
     5  H    0.286490
 Sum of Mulliken charges =  -1.00000
 Mulliken charges with hydrogens summed into heavy atoms:
               1
     1  O   -0.848862
     3  O   -0.151138
 APT charges:
               1
     1  O   -1.102271
     2  H    0.253410
     3  O   -0.808061
     4  H    0.370432
     5  H    0.286490
 Sum of APT charges =  -1.00000
 APT charges with hydrogens summed into heavy atoms:
               1
     1  O   -0.848862
     3  O   -0.151138
 Charge=             -1.0000 electrons
 Dipole moment (field-independent basis, Debye):
    X=             -2.5568    Y=              2.6727    Z=             -0.3653  Tot=              3.7167
 N-N= 4.192343363263D+01 E-N=-7.102947759732D+01  KE=-6.950689329759D+00
  Exact polarizability:   0.000   0.000   0.000   0.000   0.000   0.000
 Approx polarizability:   6.877  -0.553   2.754  -0.443  -0.042   2.453
 Calling FoFJK, ICntrl=    100147 FMM=F ISym2X=0 I1Cent= 0 IOpClX= 0 NMat=1 NMatS=1 NMatT=0.
 ***** Axes restored to original set *****
 -------------------------------------------------------------------
 Center     Atomic                   Forces (Hartrees/Bohr)
 Number     Number              X              Y              Z
 -------------------------------------------------------------------
      1        8           0.013235190    0.005196655   -0.014897596
      2        1           0.008269731   -0.000354760    0.009108211
      3        8          -0.077885092    0.014179404   -0.010493833
      4        1           0.047049086   -0.003238677    0.013872910
      5        1           0.009331085   -0.015782622    0.002410307
 -------------------------------------------------------------------
 Cartesian Forces:  Max     0.077885092 RMS     0.025444560
 FormGI is forming the generalized inverse of G from B-inverse, IUseBI=4.

 GradGradGradGradGradGradGradGradGradGradGradGradGradGradGradGradGradGrad
 Berny optimization.
 Internal  Forces:  Max     0.068554007 RMS     0.025648978
 Search for a saddle point.
 Step number   1 out of a maximum of   20
 All quantities printed in internal units (Hartrees-Bohrs-Radians)
 Swapping is turned off.
 Second derivative matrix not updated -- analytic derivatives used.
 The second derivative matrix:
                          R1        R2        R3        R4        A1
           R1           0.21629
           R2           0.01733   0.12667
           R3          -0.00733   0.10265   0.22732
           R4           0.00043  -0.00508   0.00916   0.22639
           A1           0.01899   0.02794   0.00348   0.00139   0.05478
           A2          -0.00081   0.01227   0.03816   0.05501   0.00302
           A3          -0.00026   0.01758   0.00367  -0.00046   0.00385
           D1           0.00003  -0.00049  -0.00155   0.00025  -0.00137
           D2           0.00006  -0.00001  -0.00235   0.00033  -0.00152
                          A2        A3        D1        D2
           A2           0.10013
           A3          -0.00454   0.03509
           D1          -0.00233   0.00172  -0.00013
           D2          -0.00519  -0.00821   0.00038   0.00030
 ITU=  0
     Eigenvalues ---   -0.00245  -0.00016   0.02934   0.03880   0.07048
     Eigenvalues ---    0.08294   0.22080   0.24237   0.30470
 Eigenvectors required to have negative eigenvalues:
                          D2        D1        A3        R2        A2
   1                    0.92954  -0.25405   0.24811  -0.06716   0.05985
                          A1        R3        R4        R1
   1                    0.02910   0.02427  -0.01759   0.00395
 RFO step:  Lambda0=7.633549121D-06 Lambda=-2.84925894D-02.
 Linear search not attempted -- option 19 set.
 Maximum step size (   0.300) exceeded in Quadratic search.
    -- Step size scaled by   0.630
 Iteration  1 RMS(Cart)=  0.13627475 RMS(Int)=  0.14181188
 Iteration  2 RMS(Cart)=  0.06915682 RMS(Int)=  0.07371002
 Iteration  3 RMS(Cart)=  0.06663909 RMS(Int)=  0.00811122
 Iteration  4 RMS(Cart)=  0.00760663 RMS(Int)=  0.00005676
 Iteration  5 RMS(Cart)=  0.00004952 RMS(Int)=  0.00000000
 Iteration  6 RMS(Cart)=  0.00000000 RMS(Int)=  0.00000000
 Variable       Old X    -DE/DX   Delta X   Delta X   Delta X     New X
                                 (Linear)    (Quad)   (Total)
    R1        1.74892  -0.00760   0.00000  -0.01741  -0.01741   1.73151
    R2        2.66752   0.01962   0.00000  -0.08357  -0.08357   2.58395
    R3        1.81414   0.06855   0.00000   0.20785   0.20785   2.02199
    R4        1.81414  -0.01799   0.00000  -0.03226  -0.03226   1.78187
    A1        1.48212   0.01687   0.00000   0.12979   0.12979   1.61192
    A2        1.91114  -0.00640   0.00000  -0.09385  -0.09385   1.81729
    A3        2.84432   0.01049   0.00000   0.09345   0.09345   2.93778
    D1       -2.59496  -0.00138   0.00000  -0.61686  -0.61686   3.07136
    D2        1.13465  -0.00412   0.00000  -0.16578  -0.16578   0.96887
         Item               Value     Threshold  Converged?
 Maximum Force            0.068554     0.000450     NO 
 RMS     Force            0.025649     0.000300     NO 
 Maximum Displacement     0.383130     0.001800     NO 
 RMS     Displacement     0.259225     0.001200     NO 
 Predicted change in Energy=-1.439653D-02
 Optimization stopped.
    -- Wrong number of Negative eigenvalues: Desired=  1 Actual=  2
    -- Flag reset to prevent archiving.
                           ----------------------------
                           ! Non-Optimized Parameters !
                           ! (Angstroms and Degrees)  !
 --------------------------                            --------------------------
 ! Name  Definition              Value          Derivative Info.                !
 --------------------------------------------------------------------------------
 ! R1    R(1,2)                  0.9163         -DE/DX =   -0.0076              !
 ! R2    R(1,4)                  1.3674         -DE/DX =    0.0196              !
 ! R3    R(3,4)                  1.07           -DE/DX =    0.0686              !
 ! R4    R(3,5)                  0.9429         -DE/DX =   -0.018               !
 ! A1    A(2,1,4)               92.356          -DE/DX =    0.0169              !
 ! A2    A(4,3,5)              104.1228         -DE/DX =   -0.0064              !
 ! A3    A(1,4,3)              168.3221         -DE/DX =    0.0105              !
 ! D1    D(2,1,4,3)            175.9762         -DE/DX =   -0.0014              !
 ! D2    D(5,3,4,1)             55.5122         -DE/DX =   -0.0041              !
 --------------------------------------------------------------------------------
 GradGradGradGradGradGradGradGradGradGradGradGradGradGradGradGradGradGrad

                          Input orientation:                          
 ---------------------------------------------------------------------
 Center     Atomic      Atomic             Coordinates (Angstroms)
 Number     Number       Type             X           Y           Z
 ---------------------------------------------------------------------
      1          8           0       -0.135068    0.317639    0.442255
      2          1           0        0.017241    0.423729   -0.464429
      3          8           0       -2.444747    0.142967    0.067491
      4          1           0       -1.484747    0.142967    0.067491
      5          1           0       -2.765202    1.047903    0.067491
 ---------------------------------------------------------------------
                    Distance matrix (angstroms):
                    1          2          3          4          5
     1  O    0.000000
     2  H    0.925489   0.000000
     3  O    2.346397   2.534395   0.000000
     4  H    1.411593   1.617942   0.960000   0.000000
     5  H    2.755239   2.900780   0.960000   1.567952   0.000000
 Stoichiometry    H3O2(1-)
 Framework group  C1[X(H3O2)]
 Deg. of freedom     9
 Full point group                 C1      NOp   1
 Largest Abelian subgroup         C1      NOp   1
 Largest concise Abelian subgroup C1      NOp   1
                         Standard orientation:                         
 ---------------------------------------------------------------------
 Center     Atomic      Atomic             Coordinates (Angstroms)
 Number     Number       Type             X           Y           Z
 ---------------------------------------------------------------------
      1          8           0        1.194845   -0.069505    0.084660
      2          1           0        1.245653    0.624151   -0.525905
      3          8           0       -1.146487   -0.077464   -0.069224
      4          1           0       -0.193132   -0.023773   -0.168371
      5          1           0       -1.439382    0.575375    0.570787
 ---------------------------------------------------------------------
 Rotational constants (GHZ):    307.4193646     10.4479290     10.4309948


 My opinions may have changed, but not the fact that I am right.
                       -- Ashleigh Brilliant
 Error termination request processed by link 9999.
 Error termination via Lnk1e in C:\G09W\l9999.exe at Tue Mar 15 16:55:24 2022.
 Job cpu time:       0 days  0 hours  0 minutes  4.0 seconds.
 File lengths (MBytes):  RWF=      5 Int=      0 D2E=      0 Chk=      1 Scr=      1
