 Entering Link 1 = C:\G09W\l1.exe PID=      1004.
  
 Copyright (c) 1988,1990,1992,1993,1995,1998,2003,2009,2013,
            Gaussian, Inc.  All Rights Reserved.
  
 This is part of the Gaussian(R) 09 program.  It is based on
 the Gaussian(R) 03 system (copyright 2003, Gaussian, Inc.),
 the Gaussian(R) 98 system (copyright 1998, Gaussian, Inc.),
 the Gaussian(R) 94 system (copyright 1995, Gaussian, Inc.),
 the Gaussian 92(TM) system (copyright 1992, Gaussian, Inc.),
 the Gaussian 90(TM) system (copyright 1990, Gaussian, Inc.),
 the Gaussian 88(TM) system (copyright 1988, Gaussian, Inc.),
 the Gaussian 86(TM) system (copyright 1986, Carnegie Mellon
 University), and the Gaussian 82(TM) system (copyright 1983,
 Carnegie Mellon University). Gaussian is a federally registered
 trademark of Gaussian, Inc.
  
 This software contains proprietary and confidential information,
 including trade secrets, belonging to Gaussian, Inc.
  
 This software is provided under written license and may be
 used, copied, transmitted, or stored only in accord with that
 written license.
  
 The following legend is applicable only to US Government
 contracts under FAR:
  
                    RESTRICTED RIGHTS LEGEND
  
 Use, reproduction and disclosure by the US Government is
 subject to restrictions as set forth in subparagraphs (a)
 and (c) of the Commercial Computer Software - Restricted
 Rights clause in FAR 52.227-19.
  
 Gaussian, Inc.
 340 Quinnipiac St., Bldg. 40, Wallingford CT 06492
  
  
 ---------------------------------------------------------------
 Warning -- This program may not be used in any manner that
 competes with the business of Gaussian, Inc. or will provide
 assistance to any competitor of Gaussian, Inc.  The licensee
 of this program is prohibited from giving any competitor of
 Gaussian, Inc. access to this program.  By using this program,
 the user acknowledges that Gaussian, Inc. is engaged in the
 business of creating and licensing software in the field of
 computational chemistry and represents and warrants to the
 licensee that it is not a competitor of Gaussian, Inc. and that
 it will not use this program in any manner prohibited above.
 ---------------------------------------------------------------
  

 Cite this work as:
 Gaussian 09, Revision D.01,
 M. J. Frisch, G. W. Trucks, H. B. Schlegel, G. E. Scuseria, 
 M. A. Robb, J. R. Cheeseman, G. Scalmani, V. Barone, B. Mennucci, 
 G. A. Petersson, H. Nakatsuji, M. Caricato, X. Li, H. P. Hratchian, 
 A. F. Izmaylov, J. Bloino, G. Zheng, J. L. Sonnenberg, M. Hada, 
 M. Ehara, K. Toyota, R. Fukuda, J. Hasegawa, M. Ishida, T. Nakajima, 
 Y. Honda, O. Kitao, H. Nakai, T. Vreven, J. A. Montgomery, Jr., 
 J. E. Peralta, F. Ogliaro, M. Bearpark, J. J. Heyd, E. Brothers, 
 K. N. Kudin, V. N. Staroverov, T. Keith, R. Kobayashi, J. Normand, 
 K. Raghavachari, A. Rendell, J. C. Burant, S. S. Iyengar, J. Tomasi, 
 M. Cossi, N. Rega, J. M. Millam, M. Klene, J. E. Knox, J. B. Cross, 
 V. Bakken, C. Adamo, J. Jaramillo, R. Gomperts, R. E. Stratmann, 
 O. Yazyev, A. J. Austin, R. Cammi, C. Pomelli, J. W. Ochterski, 
 R. L. Martin, K. Morokuma, V. G. Zakrzewski, G. A. Voth, 
 P. Salvador, J. J. Dannenberg, S. Dapprich, A. D. Daniels, 
 O. Farkas, J. B. Foresman, J. V. Ortiz, J. Cioslowski, 
 and D. J. Fox, Gaussian, Inc., Wallingford CT, 2013.
 
 ******************************************
 Gaussian 09:  IA32W-G09RevD.01 24-Apr-2013
                12-Feb-2022 
 ******************************************
 %chk=D:\mindmap\gaussian\calculate\opt_freq\C6H6\C6H6.chk
 %nprocshared=4
 Will use up to    4 processors via shared memory.
 %mem=1GB
 ----------------------------------------------------
 # opt freq apfd/6-311+g(2d,p) pop=full int=ultrafine
 ----------------------------------------------------
 1/14=-1,18=20,19=15,26=4,38=1/1,3;
 2/9=110,12=2,17=6,18=5,40=1/2;
 3/5=4,6=6,7=112,11=2,16=1,25=1,30=1,71=1,74=-44,75=-5/1,2,3;
 4//1;
 5/5=2,38=5/2;
 6/7=3,28=1/1;
 7//1,2,3,16;
 1/14=-1,18=20,19=15,26=4/3(2);
 2/9=110/2;
 99//99;
 2/9=110/2;
 3/5=4,6=6,7=112,11=2,16=1,25=1,30=1,71=1,74=-44,75=-5/1,2,3;
 4/5=5,16=3,69=1/1;
 5/5=2,38=5/2;
 7//1,2,3,16;
 1/14=-1,18=20,19=15,26=4/3(-5);
 2/9=110/2;
 6/7=3,19=2,28=1/1;
 99/9=1/99;
 ------------
 opt freq(GC)
 ------------
 Symbolic Z-matrix:
 Charge =  0 Multiplicity = 1
 C                     0.        1.39499   0. 
 C                    -1.2081    0.6975    0. 
 C                    -1.2081   -0.6975    0. 
 C                     0.       -1.39499   0. 
 C                     1.2081   -0.6975    0. 
 C                     1.2081    0.6975    0. 
 H                     0.        2.4946    0. 
 H                    -2.16039   1.2473    0. 
 H                    -2.16039  -1.2473    0. 
 H                     0.       -2.4946    0. 
 H                     2.16039  -1.2473    0. 
 H                     2.16039   1.2473    0. 
 

 GradGradGradGradGradGradGradGradGradGradGradGradGradGradGradGradGradGrad
 Berny optimization.
 Initialization pass.
                           ----------------------------
                           !    Initial Parameters    !
                           ! (Angstroms and Degrees)  !
 --------------------------                            --------------------------
 ! Name  Definition              Value          Derivative Info.                !
 --------------------------------------------------------------------------------
 ! R1    R(1,2)                  1.395          estimate D2E/DX2                !
 ! R2    R(1,6)                  1.395          estimate D2E/DX2                !
 ! R3    R(1,7)                  1.0996         estimate D2E/DX2                !
 ! R4    R(2,3)                  1.395          estimate D2E/DX2                !
 ! R5    R(2,8)                  1.0996         estimate D2E/DX2                !
 ! R6    R(3,4)                  1.395          estimate D2E/DX2                !
 ! R7    R(3,9)                  1.0996         estimate D2E/DX2                !
 ! R8    R(4,5)                  1.395          estimate D2E/DX2                !
 ! R9    R(4,10)                 1.0996         estimate D2E/DX2                !
 ! R10   R(5,6)                  1.395          estimate D2E/DX2                !
 ! R11   R(5,11)                 1.0996         estimate D2E/DX2                !
 ! R12   R(6,12)                 1.0996         estimate D2E/DX2                !
 ! A1    A(2,1,6)              120.0            estimate D2E/DX2                !
 ! A2    A(2,1,7)              120.0            estimate D2E/DX2                !
 ! A3    A(6,1,7)              120.0            estimate D2E/DX2                !
 ! A4    A(1,2,3)              120.0            estimate D2E/DX2                !
 ! A5    A(1,2,8)              120.0            estimate D2E/DX2                !
 ! A6    A(3,2,8)              120.0            estimate D2E/DX2                !
 ! A7    A(2,3,4)              120.0            estimate D2E/DX2                !
 ! A8    A(2,3,9)              120.0            estimate D2E/DX2                !
 ! A9    A(4,3,9)              120.0            estimate D2E/DX2                !
 ! A10   A(3,4,5)              120.0            estimate D2E/DX2                !
 ! A11   A(3,4,10)             120.0            estimate D2E/DX2                !
 ! A12   A(5,4,10)             120.0            estimate D2E/DX2                !
 ! A13   A(4,5,6)              120.0            estimate D2E/DX2                !
 ! A14   A(4,5,11)             120.0            estimate D2E/DX2                !
 ! A15   A(6,5,11)             120.0            estimate D2E/DX2                !
 ! A16   A(1,6,5)              120.0            estimate D2E/DX2                !
 ! A17   A(1,6,12)             120.0            estimate D2E/DX2                !
 ! A18   A(5,6,12)             120.0            estimate D2E/DX2                !
 ! D1    D(6,1,2,3)              0.0            estimate D2E/DX2                !
 ! D2    D(6,1,2,8)            180.0            estimate D2E/DX2                !
 ! D3    D(7,1,2,3)            180.0            estimate D2E/DX2                !
 ! D4    D(7,1,2,8)              0.0            estimate D2E/DX2                !
 ! D5    D(2,1,6,5)              0.0            estimate D2E/DX2                !
 ! D6    D(2,1,6,12)           180.0            estimate D2E/DX2                !
 ! D7    D(7,1,6,5)            180.0            estimate D2E/DX2                !
 ! D8    D(7,1,6,12)             0.0            estimate D2E/DX2                !
 ! D9    D(1,2,3,4)              0.0            estimate D2E/DX2                !
 ! D10   D(1,2,3,9)            180.0            estimate D2E/DX2                !
 ! D11   D(8,2,3,4)            180.0            estimate D2E/DX2                !
 ! D12   D(8,2,3,9)              0.0            estimate D2E/DX2                !
 ! D13   D(2,3,4,5)              0.0            estimate D2E/DX2                !
 ! D14   D(2,3,4,10)           180.0            estimate D2E/DX2                !
 ! D15   D(9,3,4,5)            180.0            estimate D2E/DX2                !
 ! D16   D(9,3,4,10)             0.0            estimate D2E/DX2                !
 ! D17   D(3,4,5,6)              0.0            estimate D2E/DX2                !
 ! D18   D(3,4,5,11)           180.0            estimate D2E/DX2                !
 ! D19   D(10,4,5,6)           180.0            estimate D2E/DX2                !
 ! D20   D(10,4,5,11)            0.0            estimate D2E/DX2                !
 ! D21   D(4,5,6,1)              0.0            estimate D2E/DX2                !
 ! D22   D(4,5,6,12)           180.0            estimate D2E/DX2                !
 ! D23   D(11,5,6,1)           180.0            estimate D2E/DX2                !
 ! D24   D(11,5,6,12)            0.0            estimate D2E/DX2                !
 --------------------------------------------------------------------------------
 Trust Radius=3.00D-01 FncErr=1.00D-07 GrdErr=1.00D-06
 Number of steps in this run=     64 maximum allowed number of steps=    100.
 GradGradGradGradGradGradGradGradGradGradGradGradGradGradGradGradGradGrad

                          Input orientation:                          
 ---------------------------------------------------------------------
 Center     Atomic      Atomic             Coordinates (Angstroms)
 Number     Number       Type             X           Y           Z
 ---------------------------------------------------------------------
      1          6           0        0.000000    1.394991    0.000000
      2          6           0       -1.208097    0.697495    0.000000
      3          6           0       -1.208097   -0.697495    0.000000
      4          6           0        0.000000   -1.394991    0.000000
      5          6           0        1.208097   -0.697495    0.000000
      6          6           0        1.208097    0.697495    0.000000
      7          1           0        0.000000    2.494601    0.000000
      8          1           0       -2.160388    1.247300    0.000000
      9          1           0       -2.160388   -1.247300    0.000000
     10          1           0        0.000000   -2.494601    0.000000
     11          1           0        2.160388   -1.247300    0.000000
     12          1           0        2.160388    1.247300    0.000000
 ---------------------------------------------------------------------
                    Distance matrix (angstroms):
                    1          2          3          4          5
     1  C    0.000000
     2  C    1.394991   0.000000
     3  C    2.416195   1.394991   0.000000
     4  C    2.789981   2.416195   1.394991   0.000000
     5  C    2.416195   2.789981   2.416195   1.394991   0.000000
     6  C    1.394991   2.416195   2.789981   2.416195   1.394991
     7  H    1.099610   2.165430   3.413060   3.889592   3.413060
     8  H    2.165430   1.099610   2.165430   3.413060   3.889592
     9  H    3.413060   2.165430   1.099610   2.165430   3.413060
    10  H    3.889592   3.413060   2.165430   1.099610   2.165430
    11  H    3.413060   3.889592   3.413060   2.165430   1.099610
    12  H    2.165430   3.413060   3.889592   3.413060   2.165430
                    6          7          8          9         10
     6  C    0.000000
     7  H    2.165430   0.000000
     8  H    3.413060   2.494601   0.000000
     9  H    3.889592   4.320776   2.494601   0.000000
    10  H    3.413060   4.989202   4.320776   2.494601   0.000000
    11  H    2.165430   4.320776   4.989202   4.320776   2.494601
    12  H    1.099610   2.494601   4.320776   4.989202   4.320776
                   11         12
    11  H    0.000000
    12  H    2.494601   0.000000
 Stoichiometry    C6H6
 Framework group  D6H[3C2'(HC.CH)]
 Deg. of freedom     2
 Full point group                 D6H     NOp  24
 Largest Abelian subgroup         D2H     NOp   8
 Largest concise Abelian subgroup D2      NOp   4
                         Standard orientation:                         
 ---------------------------------------------------------------------
 Center     Atomic      Atomic             Coordinates (Angstroms)
 Number     Number       Type             X           Y           Z
 ---------------------------------------------------------------------
      1          6           0        0.000000    1.394991    0.000000
      2          6           0        1.208097    0.697495    0.000000
      3          6           0        1.208097   -0.697495    0.000000
      4          6           0        0.000000   -1.394991    0.000000
      5          6           0       -1.208097   -0.697495    0.000000
      6          6           0       -1.208097    0.697495    0.000000
      7          1           0        0.000000    2.494601    0.000000
      8          1           0        2.160388    1.247300    0.000000
      9          1           0        2.160388   -1.247300    0.000000
     10          1           0        0.000000   -2.494601    0.000000
     11          1           0       -2.160388   -1.247300    0.000000
     12          1           0       -2.160388    1.247300    0.000000
 ---------------------------------------------------------------------
 Rotational constants (GHZ):      5.6866486      5.6866486      2.8433243
 Standard basis: 6-311+G(2d,p) (5D, 7F)
 There are    45 symmetry adapted cartesian basis functions of AG  symmetry.
 There are    33 symmetry adapted cartesian basis functions of B1G symmetry.
 There are    11 symmetry adapted cartesian basis functions of B2G symmetry.
 There are    16 symmetry adapted cartesian basis functions of B3G symmetry.
 There are    11 symmetry adapted cartesian basis functions of AU  symmetry.
 There are    16 symmetry adapted cartesian basis functions of B1U symmetry.
 There are    45 symmetry adapted cartesian basis functions of B2U symmetry.
 There are    33 symmetry adapted cartesian basis functions of B3U symmetry.
 There are    41 symmetry adapted basis functions of AG  symmetry.
 There are    31 symmetry adapted basis functions of B1G symmetry.
 There are    11 symmetry adapted basis functions of B2G symmetry.
 There are    16 symmetry adapted basis functions of B3G symmetry.
 There are    11 symmetry adapted basis functions of AU  symmetry.
 There are    16 symmetry adapted basis functions of B1U symmetry.
 There are    41 symmetry adapted basis functions of B2U symmetry.
 There are    31 symmetry adapted basis functions of B3U symmetry.
   198 basis functions,   300 primitive gaussians,   210 cartesian basis functions
    21 alpha electrons       21 beta electrons
       nuclear repulsion energy       203.0352978423 Hartrees.
 NAtoms=   12 NActive=   12 NUniq=    2 SFac= 4.00D+00 NAtFMM=   60 NAOKFM=F Big=F
 Integral buffers will be    262144 words long.
 Raffenetti 2 integral format.
 Two-electron integral symmetry is turned on.
 R6APFD:  NTU= -4 IXU= 1 FactS= 1.050
 Nuclear repulsion after empirical dispersion term =      203.0315297785 Hartrees.
 One-electron integrals computed using PRISM.
 NBasis=   198 RedAO= T EigKep=  3.43D-06  NBF=    41    31    11    16    11    16    41    31
 NBsUse=   198 1.00D-06 EigRej= -1.00D+00 NBFU=    41    31    11    16    11    16    41    31
 ExpMin= 4.38D-02 ExpMax= 4.56D+03 ExpMxC= 6.82D+02 IAcc=3 IRadAn=         5 AccDes= 0.00D+00
 Harris functional with IExCor= 3731 and IRadAn=       5 diagonalized for initial guess.
 HarFok:  IExCor= 3731 AccDes= 0.00D+00 IRadAn=         5 IDoV= 1 UseB2=F ITyADJ=14
 ICtDFT=  3500011 ScaDFX=  1.000000  1.000000  1.000000  1.000000
 FoFCou: FMM=F IPFlag=           0 FMFlag=      100000 FMFlg1=           0
         NFxFlg=           0 DoJE=T BraDBF=F KetDBF=T FulRan=T
         wScrn=  0.000000 ICntrl=     500 IOpCl=  0 I1Cent=   200000004 NGrid=           0
         NMat0=    1 NMatS0=      1 NMatT0=    0 NMatD0=    1 NMtDS0=    0 NMtDT0=    0
 Petite list used in FoFCou.
 Initial guess orbital symmetries:
       Occupied  (E1U) (E1U) (A1G) (E2G) (E2G) (B1U) (A1G) (E1U)
                 (E1U) (E2G) (E2G) (A1G) (B2U) (B1U) (E1U) (E1U)
                 (A2U) (E2G) (E2G) (E1G) (E1G)
       Virtual   (E2U) (E2U) (A1G) (E1U) (E1U) (E2G) (E2G) (A2U)
                 (A1G) (B1U) (E1G) (E1G) (B2G) (B2U) (E2U) (E2U)
                 (E1U) (E1U) (E2G) (E2G) (A1G) (E1U) (E1U) (B2G)
                 (E2G) (E2G) (E1U) (E1U) (B1U) (E2G) (E2G) (A2G)
                 (B1U) (E2G) (E2G) (E1U) (E1U) (A1G) (A2U) (B2U)
                 (B1U) (E1U) (E1U) (E2G) (E2G) (A1G) (A2U) (A2G)
                 (E1G) (E1G) (E2U) (E2U) (B1G) (E2G) (E2G) (E1U)
                 (E1U) (A1G) (B2G) (B1U) (E1G) (E1G) (E1U) (E1U)
                 (A2G) (A1G) (E2U) (E2U) (E1U) (E1U) (E2G) (E2G)
                 (B1U) (E2G) (E2G) (B2U) (E2U) (E2U) (A1G) (E1G)
                 (E1G) (B1U) (B2G) (E2G) (E2G) (E1U) (E1U) (E1U)
                 (E1U) (B1U) (E2G) (E2G) (E1U) (E1U) (E2G) (E2G)
                 (A2G) (A1U) (A2U) (E1G) (E1G) (B1U) (B2U) (E2U)
                 (E2U) (A1G) (B2G) (E2G) (E2G) (E1U) (E1U) (A1G)
                 (A2U) (E1U) (E1U) (A2G) (E1U) (E1U) (E2G) (E2G)
                 (B1U) (E2U) (E2U) (E1G) (E1G) (B2U) (E2G) (E2G)
                 (B1G) (A1G) (A2U) (B2G) (B2U) (E1U) (E1U) (E2U)
                 (E2U) (E1G) (E1G) (B1U) (E2G) (E2G) (A1G) (E2G)
                 (E2G) (E1U) (E1U) (E2U) (E2U) (E1G) (E1G) (B2G)
                 (A1U) (E1U) (E1U) (E2G) (E2G) (A1G) (B1U) (A2G)
                 (B1U) (E2G) (E2G) (E1U) (E1U) (E2G) (E2G) (B1U)
                 (E1U) (E1U) (A2G) (A1G) (E2G) (E2G) (E1U) (E1U)
                 (B1U)
 The electronic state of the initial guess is 1-A1G.
 Requested convergence on RMS density matrix=1.00D-08 within 128 cycles.
 Requested convergence on MAX density matrix=1.00D-06.
 Requested convergence on             energy=1.00D-06.
 No special actions if energy rises.
 SCF Done:  E(RAPFD) =  -232.109103449     A.U. after    8 cycles
            NFock=  8  Conv=0.59D-08     -V/T= 2.0053

 **********************************************************************

            Population analysis using the SCF density.

 **********************************************************************

 Orbital symmetries:
       Occupied  (A1G) (E1U) (E1U) (E2G) (E2G) (B1U) (A1G) (E1U)
                 (E1U) (E2G) (E2G) (A1G) (B1U) (B2U) (E1U) (E1U)
                 (A2U) (E2G) (E2G) (E1G) (E1G)
       Virtual   (E2U) (E2U) (A1G) (E1U) (E1U) (E2G) (E2G) (A2U)
                 (A1G) (B1U) (E1G) (E1G) (B2U) (B2G) (E2U) (E2U)
                 (E2G) (E2G) (E1U) (E1U) (A1G) (E1U) (E1U) (B2G)
                 (E1U) (E1U) (E2G) (E2G) (B1U) (E2G) (E2G) (A2G)
                 (B1U) (E2G) (E2G) (E1U) (E1U) (A1G) (A2U) (B2U)
                 (B1U) (E1U) (E1U) (E2G) (E2G) (A2U) (A1G) (E1G)
                 (E1G) (A2G) (E2U) (E2U) (B1G) (E2G) (E2G) (E1U)
                 (E1U) (A1G) (B2G) (B1U) (E1G) (E1G) (E1U) (E1U)
                 (A2G) (E1U) (E1U) (A1G) (E2G) (E2G) (E2U) (E2U)
                 (B1U) (E2G) (E2G) (B2U) (E2U) (E2U) (A1G) (B1U)
                 (E1G) (E1G) (B2G) (E2G) (E2G) (E1U) (E1U) (E1U)
                 (E1U) (B1U) (E2G) (E2G) (E1U) (E1U) (E2G) (E2G)
                 (A2G) (A1U) (A2U) (E1G) (E1G) (B1U) (B2U) (E2U)
                 (E2U) (A1G) (B2G) (E2G) (E2G) (E1U) (E1U) (A1G)
                 (E1U) (E1U) (A2U) (A2G) (E1U) (E1U) (E2G) (E2G)
                 (B1U) (E2U) (E2U) (E1G) (E1G) (E2G) (E2G) (B2U)
                 (B1G) (A1G) (A2U) (B2G) (B2U) (E1U) (E1U) (B1U)
                 (E2U) (E2U) (E1G) (E1G) (E2G) (E2G) (A1G) (E2G)
                 (E2G) (E1U) (E1U) (E2U) (E2U) (E1G) (E1G) (B2G)
                 (E1U) (E1U) (A1U) (E2G) (E2G) (A1G) (B1U) (A2G)
                 (B1U) (E2G) (E2G) (E1U) (E1U) (E2G) (E2G) (B1U)
                 (E1U) (E1U) (A2G) (A1G) (E2G) (E2G) (E1U) (E1U)
                 (B1U)
 The electronic state is 1-A1G.
 Alpha  occ. eigenvalues --  -10.20567 -10.20542 -10.20542 -10.20480 -10.20480
 Alpha  occ. eigenvalues --  -10.20452  -0.87474  -0.76346  -0.76346  -0.61632
 Alpha  occ. eigenvalues --   -0.61632  -0.53488  -0.46891  -0.46030  -0.43086
 Alpha  occ. eigenvalues --   -0.43086  -0.38100  -0.35308  -0.35308  -0.26537
 Alpha  occ. eigenvalues --   -0.26537
 Alpha virt. eigenvalues --   -0.01345  -0.01345   0.01369   0.03257   0.03257
 Alpha virt. eigenvalues --    0.05399   0.05399   0.07243   0.08127   0.08593
 Alpha virt. eigenvalues --    0.09892   0.09892   0.10790   0.13215   0.14814
 Alpha virt. eigenvalues --    0.14814   0.14986   0.14986   0.15569   0.15569
 Alpha virt. eigenvalues --    0.17288   0.20075   0.20075   0.20769   0.21489
 Alpha virt. eigenvalues --    0.21489   0.21525   0.21525   0.23093   0.23954
 Alpha virt. eigenvalues --    0.23954   0.27225   0.28671   0.32502   0.32502
 Alpha virt. eigenvalues --    0.32768   0.32768   0.40469   0.45426   0.45447
 Alpha virt. eigenvalues --    0.49690   0.51790   0.51790   0.52995   0.52995
 Alpha virt. eigenvalues --    0.54071   0.54394   0.54482   0.54482   0.55261
 Alpha virt. eigenvalues --    0.62001   0.62001   0.64273   0.64949   0.64949
 Alpha virt. eigenvalues --    0.65992   0.65992   0.66756   0.67984   0.72193
 Alpha virt. eigenvalues --    0.76692   0.76692   0.77868   0.77868   0.81658
 Alpha virt. eigenvalues --    0.82646   0.82646   0.82846   0.83208   0.83208
 Alpha virt. eigenvalues --    0.84043   0.84043   0.86593   1.00520   1.00520
 Alpha virt. eigenvalues --    1.10462   1.12554   1.12554   1.18945   1.22750
 Alpha virt. eigenvalues --    1.23038   1.23038   1.28734   1.31428   1.31428
 Alpha virt. eigenvalues --    1.33509   1.33509   1.33978   1.33978   1.48022
 Alpha virt. eigenvalues --    1.51579   1.51579   1.53137   1.53137   1.56461
 Alpha virt. eigenvalues --    1.56461   1.56820   1.59049   1.61718   1.77253
 Alpha virt. eigenvalues --    1.77253   1.88878   1.91409   1.97963   1.97963
 Alpha virt. eigenvalues --    2.15233   2.20160   2.31532   2.31532   2.34411
 Alpha virt. eigenvalues --    2.34411   2.58916   2.63474   2.63474   2.65064
 Alpha virt. eigenvalues --    2.65727   2.75382   2.75382   2.75758   2.75758
 Alpha virt. eigenvalues --    2.78264   2.86010   2.86010   2.86152   2.86152
 Alpha virt. eigenvalues --    2.98999   2.98999   3.00800   3.06400   3.10460
 Alpha virt. eigenvalues --    3.12247   3.13416   3.17164   3.24376   3.24376
 Alpha virt. eigenvalues --    3.30421   3.31138   3.31138   3.31527   3.31527
 Alpha virt. eigenvalues --    3.39189   3.39189   3.41751   3.45814   3.45814
 Alpha virt. eigenvalues --    3.57536   3.57536   3.58363   3.58363   3.61000
 Alpha virt. eigenvalues --    3.61000   3.66830   3.74877   3.74877   3.75332
 Alpha virt. eigenvalues --    3.78530   3.78530   3.82134   3.87008   3.89857
 Alpha virt. eigenvalues --    3.93640   3.95442   3.95442   3.99895   3.99895
 Alpha virt. eigenvalues --    4.52001   4.52001   4.63287   4.83251   4.83251
 Alpha virt. eigenvalues --    5.29564  23.66476  24.04653  24.04653  24.11596
 Alpha virt. eigenvalues --   24.11596  24.17807
     Molecular Orbital Coefficients:
                           1         2         3         4         5
                       (A1G)--O  (E1U)--O  (E1U)--O  (E2G)--O  (E2G)--O
     Eigenvalues --   -10.20567 -10.20542 -10.20542 -10.20480 -10.20480
   1 1   C  1S          0.22986   0.00000   0.32513   0.00000   0.32517
   2        2S          0.18925   0.00000   0.26736   0.00000   0.26748
   3        2PX         0.00000   0.00075   0.00000   0.00052   0.00000
   4        2PY        -0.00031   0.00000   0.00009   0.00000   0.00031
   5        2PZ         0.00000   0.00000   0.00000   0.00000   0.00000
   6        3S          0.00742   0.00000   0.01347   0.00000   0.01098
   7        3PX         0.00000  -0.00306   0.00000  -0.00146   0.00000
   8        3PY         0.00147   0.00000  -0.00164   0.00000  -0.00152
   9        3PZ         0.00000   0.00000   0.00000   0.00000   0.00000
  10        4S         -0.00269   0.00000  -0.00006   0.00000  -0.00639
  11        4PX         0.00000  -0.00464   0.00000  -0.00102   0.00000
  12        4PY         0.00056   0.00000  -0.00007   0.00000   0.00334
  13        4PZ         0.00000   0.00000   0.00000   0.00000   0.00000
  14        5S         -0.00025   0.00000  -0.00765   0.00000   0.02713
  15        5PX         0.00000   0.00589   0.00000  -0.00181   0.00000
  16        5PY        -0.00088   0.00000  -0.00195   0.00000  -0.00566
  17        5PZ         0.00000   0.00000   0.00000   0.00000   0.00000
  18        6D 0       -0.00025   0.00000  -0.00063   0.00000  -0.00062
  19        6D+1        0.00000   0.00000   0.00000   0.00000   0.00000
  20        6D-1        0.00000   0.00000   0.00000   0.00000   0.00000
  21        6D+2       -0.00008   0.00000   0.00013   0.00000   0.00002
  22        6D-2        0.00000   0.00012   0.00000   0.00008   0.00000
  23        7D 0        0.00020   0.00000   0.00088   0.00000   0.00007
  24        7D+1        0.00000   0.00000   0.00000   0.00000   0.00000
  25        7D-1        0.00000   0.00000   0.00000   0.00000   0.00000
  26        7D+2       -0.00116   0.00000  -0.00114   0.00000   0.00143
  27        7D-2        0.00000   0.00496   0.00000   0.00138   0.00000
  28 2   C  1S          0.22986   0.28157   0.16257   0.28161  -0.16259
  29        2S          0.18925   0.23154   0.13368   0.23165  -0.13374
  30        2PX        -0.00027   0.00026  -0.00028   0.00011  -0.00036
  31        2PY        -0.00016  -0.00028   0.00058   0.00036   0.00031
  32        2PZ         0.00000   0.00000   0.00000   0.00000   0.00000
  33        3S          0.00742   0.01167   0.00674   0.00951  -0.00549
  34        3PX         0.00127  -0.00200   0.00061  -0.00078   0.00129
  35        3PY         0.00073   0.00061  -0.00270  -0.00129  -0.00071
  36        3PZ         0.00000   0.00000   0.00000   0.00000   0.00000
  37        4S         -0.00269  -0.00005  -0.00003  -0.00553   0.00319
  38        4PX         0.00048  -0.00121   0.00198   0.00276  -0.00101
  39        4PY         0.00028   0.00198  -0.00349   0.00101  -0.00160
  40        4PZ         0.00000   0.00000   0.00000   0.00000   0.00000
  41        5S         -0.00025  -0.00663  -0.00383   0.02349  -0.01356
  42        5PX        -0.00077   0.00001  -0.00340  -0.00379   0.00323
  43        5PY        -0.00044  -0.00340   0.00393  -0.00323   0.00006
  44        5PZ         0.00000   0.00000   0.00000   0.00000   0.00000
  45        6D 0       -0.00025  -0.00055  -0.00032  -0.00054   0.00031
  46        6D+1        0.00000   0.00000   0.00000   0.00000   0.00000
  47        6D-1        0.00000   0.00000   0.00000   0.00000   0.00000
  48        6D+2        0.00004   0.00000  -0.00012  -0.00004  -0.00005
  49        6D-2        0.00007  -0.00012   0.00000   0.00000   0.00004
  50        7D 0        0.00020   0.00076   0.00044   0.00006  -0.00003
  51        7D+1        0.00000   0.00000   0.00000   0.00000   0.00000
  52        7D-1        0.00000   0.00000   0.00000   0.00000   0.00000
  53        7D+2        0.00058   0.00264  -0.00343  -0.00122  -0.00068
  54        7D-2        0.00101  -0.00039   0.00264  -0.00073   0.00122
  55 3   C  1S          0.22986   0.28157  -0.16257  -0.28161  -0.16259
  56        2S          0.18925   0.23154  -0.13368  -0.23165  -0.13374
  57        2PX        -0.00027   0.00026   0.00028  -0.00011  -0.00036
  58        2PY         0.00016   0.00028   0.00058   0.00036  -0.00031
  59        2PZ         0.00000   0.00000   0.00000   0.00000   0.00000
  60        3S          0.00742   0.01167  -0.00674  -0.00951  -0.00549
  61        3PX         0.00127  -0.00200  -0.00061   0.00078   0.00129
  62        3PY        -0.00073  -0.00061  -0.00270  -0.00129   0.00071
  63        3PZ         0.00000   0.00000   0.00000   0.00000   0.00000
  64        4S         -0.00269  -0.00005   0.00003   0.00553   0.00319
  65        4PX         0.00048  -0.00121  -0.00198  -0.00276  -0.00101
  66        4PY        -0.00028  -0.00198  -0.00349   0.00101   0.00160
  67        4PZ         0.00000   0.00000   0.00000   0.00000   0.00000
  68        5S         -0.00025  -0.00663   0.00383  -0.02349  -0.01356
  69        5PX        -0.00077   0.00001   0.00340   0.00379   0.00323
  70        5PY         0.00044   0.00340   0.00393  -0.00323  -0.00006
  71        5PZ         0.00000   0.00000   0.00000   0.00000   0.00000
  72        6D 0       -0.00025  -0.00055   0.00032   0.00054   0.00031
  73        6D+1        0.00000   0.00000   0.00000   0.00000   0.00000
  74        6D-1        0.00000   0.00000   0.00000   0.00000   0.00000
  75        6D+2        0.00004   0.00000   0.00012   0.00004  -0.00005
  76        6D-2       -0.00007   0.00012   0.00000   0.00000  -0.00004
  77        7D 0        0.00020   0.00076  -0.00044  -0.00006  -0.00003
  78        7D+1        0.00000   0.00000   0.00000   0.00000   0.00000
  79        7D-1        0.00000   0.00000   0.00000   0.00000   0.00000
  80        7D+2        0.00058   0.00264   0.00343   0.00122  -0.00068
  81        7D-2       -0.00101   0.00039   0.00264  -0.00073  -0.00122
  82 4   C  1S          0.22986   0.00000  -0.32513   0.00000   0.32517
  83        2S          0.18925   0.00000  -0.26736   0.00000   0.26748
  84        2PX         0.00000   0.00075   0.00000  -0.00052   0.00000
  85        2PY         0.00031   0.00000   0.00009   0.00000  -0.00031
  86        2PZ         0.00000   0.00000   0.00000   0.00000   0.00000
  87        3S          0.00742   0.00000  -0.01347   0.00000   0.01098
  88        3PX         0.00000  -0.00306   0.00000   0.00146   0.00000
  89        3PY        -0.00147   0.00000  -0.00164   0.00000   0.00152
  90        3PZ         0.00000   0.00000   0.00000   0.00000   0.00000
  91        4S         -0.00269   0.00000   0.00006   0.00000  -0.00639
  92        4PX         0.00000  -0.00464   0.00000   0.00102   0.00000
  93        4PY        -0.00056   0.00000  -0.00007   0.00000  -0.00334
  94        4PZ         0.00000   0.00000   0.00000   0.00000   0.00000
  95        5S         -0.00025   0.00000   0.00765   0.00000   0.02713
  96        5PX         0.00000   0.00589   0.00000   0.00181   0.00000
  97        5PY         0.00088   0.00000  -0.00195   0.00000   0.00566
  98        5PZ         0.00000   0.00000   0.00000   0.00000   0.00000
  99        6D 0       -0.00025   0.00000   0.00063   0.00000  -0.00062
 100        6D+1        0.00000   0.00000   0.00000   0.00000   0.00000
 101        6D-1        0.00000   0.00000   0.00000   0.00000   0.00000
 102        6D+2       -0.00008   0.00000  -0.00013   0.00000   0.00002
 103        6D-2        0.00000  -0.00012   0.00000   0.00008   0.00000
 104        7D 0        0.00020   0.00000  -0.00088   0.00000   0.00007
 105        7D+1        0.00000   0.00000   0.00000   0.00000   0.00000
 106        7D-1        0.00000   0.00000   0.00000   0.00000   0.00000
 107        7D+2       -0.00116   0.00000   0.00114   0.00000   0.00143
 108        7D-2        0.00000  -0.00496   0.00000   0.00138   0.00000
 109 5   C  1S          0.22986  -0.28157  -0.16257   0.28161  -0.16259
 110        2S          0.18925  -0.23154  -0.13368   0.23165  -0.13374
 111        2PX         0.00027   0.00026  -0.00028  -0.00011   0.00036
 112        2PY         0.00016  -0.00028   0.00058  -0.00036  -0.00031
 113        2PZ         0.00000   0.00000   0.00000   0.00000   0.00000
 114        3S          0.00742  -0.01167  -0.00674   0.00951  -0.00549
 115        3PX        -0.00127  -0.00200   0.00061   0.00078  -0.00129
 116        3PY        -0.00073   0.00061  -0.00270   0.00129   0.00071
 117        3PZ         0.00000   0.00000   0.00000   0.00000   0.00000
 118        4S         -0.00269   0.00005   0.00003  -0.00553   0.00319
 119        4PX        -0.00048  -0.00121   0.00198  -0.00276   0.00101
 120        4PY        -0.00028   0.00198  -0.00349  -0.00101   0.00160
 121        4PZ         0.00000   0.00000   0.00000   0.00000   0.00000
 122        5S         -0.00025   0.00663   0.00383   0.02349  -0.01356
 123        5PX         0.00077   0.00001  -0.00340   0.00379  -0.00323
 124        5PY         0.00044  -0.00340   0.00393   0.00323  -0.00006
 125        5PZ         0.00000   0.00000   0.00000   0.00000   0.00000
 126        6D 0       -0.00025   0.00055   0.00032  -0.00054   0.00031
 127        6D+1        0.00000   0.00000   0.00000   0.00000   0.00000
 128        6D-1        0.00000   0.00000   0.00000   0.00000   0.00000
 129        6D+2        0.00004   0.00000   0.00012  -0.00004  -0.00005
 130        6D-2        0.00007   0.00012   0.00000   0.00000   0.00004
 131        7D 0        0.00020  -0.00076  -0.00044   0.00006  -0.00003
 132        7D+1        0.00000   0.00000   0.00000   0.00000   0.00000
 133        7D-1        0.00000   0.00000   0.00000   0.00000   0.00000
 134        7D+2        0.00058  -0.00264   0.00343  -0.00122  -0.00068
 135        7D-2        0.00101   0.00039  -0.00264  -0.00073   0.00122
 136 6   C  1S          0.22986  -0.28157   0.16257  -0.28161  -0.16259
 137        2S          0.18925  -0.23154   0.13368  -0.23165  -0.13374
 138        2PX         0.00027   0.00026   0.00028   0.00011   0.00036
 139        2PY        -0.00016   0.00028   0.00058  -0.00036   0.00031
 140        2PZ         0.00000   0.00000   0.00000   0.00000   0.00000
 141        3S          0.00742  -0.01167   0.00674  -0.00951  -0.00549
 142        3PX        -0.00127  -0.00200  -0.00061  -0.00078  -0.00129
 143        3PY         0.00073  -0.00061  -0.00270   0.00129  -0.00071
 144        3PZ         0.00000   0.00000   0.00000   0.00000   0.00000
 145        4S         -0.00269   0.00005  -0.00003   0.00553   0.00319
 146        4PX        -0.00048  -0.00121  -0.00198   0.00276   0.00101
 147        4PY         0.00028  -0.00198  -0.00349  -0.00101  -0.00160
 148        4PZ         0.00000   0.00000   0.00000   0.00000   0.00000
 149        5S         -0.00025   0.00663  -0.00383  -0.02349  -0.01356
 150        5PX         0.00077   0.00001   0.00340  -0.00379  -0.00323
 151        5PY        -0.00044   0.00340   0.00393   0.00323   0.00006
 152        5PZ         0.00000   0.00000   0.00000   0.00000   0.00000
 153        6D 0       -0.00025   0.00055  -0.00032   0.00054   0.00031
 154        6D+1        0.00000   0.00000   0.00000   0.00000   0.00000
 155        6D-1        0.00000   0.00000   0.00000   0.00000   0.00000
 156        6D+2        0.00004   0.00000  -0.00012   0.00004  -0.00005
 157        6D-2       -0.00007  -0.00012   0.00000   0.00000  -0.00004
 158        7D 0        0.00020  -0.00076   0.00044  -0.00006  -0.00003
 159        7D+1        0.00000   0.00000   0.00000   0.00000   0.00000
 160        7D-1        0.00000   0.00000   0.00000   0.00000   0.00000
 161        7D+2        0.00058  -0.00264  -0.00343   0.00122  -0.00068
 162        7D-2       -0.00101  -0.00039  -0.00264  -0.00073  -0.00122
 163 7   H  1S         -0.00004   0.00000   0.00010   0.00000   0.00037
 164        2S         -0.00248   0.00000  -0.00129   0.00000  -0.00041
 165        3S          0.00192   0.00000   0.00148   0.00000  -0.00060
 166        4PX         0.00000  -0.00094   0.00000  -0.00019   0.00000
 167        4PY         0.00109   0.00000   0.00075   0.00000   0.00051
 168        4PZ         0.00000   0.00000   0.00000   0.00000   0.00000
 169 8   H  1S         -0.00004   0.00009   0.00005   0.00032  -0.00018
 170        2S         -0.00248  -0.00112  -0.00065  -0.00035   0.00020
 171        3S          0.00192   0.00128   0.00074  -0.00052   0.00030
 172        4PX         0.00094   0.00032   0.00073   0.00043  -0.00014
 173        4PY         0.00054   0.00073  -0.00052   0.00014  -0.00027
 174        4PZ         0.00000   0.00000   0.00000   0.00000   0.00000
 175 9   H  1S         -0.00004   0.00009  -0.00005  -0.00032  -0.00018
 176        2S         -0.00248  -0.00112   0.00065   0.00035   0.00020
 177        3S          0.00192   0.00128  -0.00074   0.00052   0.00030
 178        4PX         0.00094   0.00032  -0.00073  -0.00043  -0.00014
 179        4PY        -0.00054  -0.00073  -0.00052   0.00014   0.00027
 180        4PZ         0.00000   0.00000   0.00000   0.00000   0.00000
 181 10  H  1S         -0.00004   0.00000  -0.00010   0.00000   0.00037
 182        2S         -0.00248   0.00000   0.00129   0.00000  -0.00041
 183        3S          0.00192   0.00000  -0.00148   0.00000  -0.00060
 184        4PX         0.00000  -0.00094   0.00000   0.00019   0.00000
 185        4PY        -0.00109   0.00000   0.00075   0.00000  -0.00051
 186        4PZ         0.00000   0.00000   0.00000   0.00000   0.00000
 187 11  H  1S         -0.00004  -0.00009  -0.00005   0.00032  -0.00018
 188        2S         -0.00248   0.00112   0.00065  -0.00035   0.00020
 189        3S          0.00192  -0.00128  -0.00074  -0.00052   0.00030
 190        4PX        -0.00094   0.00032   0.00073  -0.00043   0.00014
 191        4PY        -0.00054   0.00073  -0.00052  -0.00014   0.00027
 192        4PZ         0.00000   0.00000   0.00000   0.00000   0.00000
 193 12  H  1S         -0.00004  -0.00009   0.00005  -0.00032  -0.00018
 194        2S         -0.00248   0.00112  -0.00065   0.00035   0.00020
 195        3S          0.00192  -0.00128   0.00074   0.00052   0.00030
 196        4PX        -0.00094   0.00032  -0.00073   0.00043   0.00014
 197        4PY         0.00054  -0.00073  -0.00052  -0.00014  -0.00027
 198        4PZ         0.00000   0.00000   0.00000   0.00000   0.00000
                           6         7         8         9        10
                       (B1U)--O  (A1G)--O  (E1U)--O  (E1U)--O  (E2G)--O
     Eigenvalues --   -10.20452  -0.87474  -0.76346  -0.76346  -0.61632
   1 1   C  1S          0.22996  -0.05125   0.00000  -0.07177   0.00000
   2        2S          0.18908  -0.07987   0.00000  -0.11260   0.00000
   3        2PX         0.00000   0.00000   0.05172   0.00000   0.09552
   4        2PY         0.00023  -0.02919   0.00000  -0.01256   0.00000
   5        2PZ         0.00000   0.00000   0.00000   0.00000   0.00000
   6        3S          0.00800   0.20374   0.00000   0.29178   0.00000
   7        3PX         0.00000   0.00000   0.07420   0.00000   0.13777
   8        3PY        -0.00080  -0.04252   0.00000  -0.02163   0.00000
   9        3PZ         0.00000   0.00000   0.00000   0.00000   0.00000
  10        4S         -0.00591   0.10061   0.00000   0.14676   0.00000
  11        4PX         0.00000   0.00000   0.03461   0.00000   0.05244
  12        4PY         0.00805  -0.00715   0.00000  -0.00215   0.00000
  13        4PZ         0.00000   0.00000   0.00000   0.00000   0.00000
  14        5S         -0.02179   0.00052   0.00000   0.03804   0.00000
  15        5PX         0.00000   0.00000  -0.03271   0.00000   0.00079
  16        5PY         0.00495   0.00579   0.00000   0.01673   0.00000
  17        5PZ         0.00000   0.00000   0.00000   0.00000   0.00000
  18        6D 0       -0.00031  -0.00551   0.00000  -0.00668   0.00000
  19        6D+1        0.00000   0.00000   0.00000   0.00000   0.00000
  20        6D-1        0.00000   0.00000   0.00000   0.00000   0.00000
  21        6D+2       -0.00005   0.00174   0.00000   0.00329   0.00000
  22        6D-2        0.00000   0.00000  -0.00616   0.00000  -0.00734
  23        7D 0       -0.00150  -0.00610   0.00000  -0.00423   0.00000
  24        7D+1        0.00000   0.00000   0.00000   0.00000   0.00000
  25        7D-1        0.00000   0.00000   0.00000   0.00000   0.00000
  26        7D+2        0.00372  -0.00087   0.00000   0.00735   0.00000
  27        7D-2        0.00000   0.00000  -0.00982   0.00000  -0.00139
  28 2   C  1S         -0.22996  -0.05125  -0.06216  -0.03589  -0.04885
  29        2S         -0.18908  -0.07987  -0.09751  -0.05630  -0.07749
  30        2PX        -0.00020  -0.02528   0.00351  -0.02784  -0.00292
  31        2PY        -0.00011  -0.01460  -0.02784   0.03565   0.05346
  32        2PZ         0.00000   0.00000   0.00000   0.00000   0.00000
  33        3S         -0.00800   0.20374   0.25268   0.14589   0.20981
  34        3PX         0.00069  -0.03682   0.00233  -0.04149  -0.00677
  35        3PY         0.00040  -0.02126  -0.04149   0.05024   0.07563
  36        3PZ         0.00000   0.00000   0.00000   0.00000   0.00000
  37        4S          0.00591   0.10061   0.12709   0.07338   0.13430
  38        4PX        -0.00697  -0.00619   0.00704  -0.01592   0.00049
  39        4PY        -0.00402  -0.00358  -0.01592   0.02542   0.03056
  40        4PZ         0.00000   0.00000   0.00000   0.00000   0.00000
  41        5S          0.02179   0.00052   0.03294   0.01902  -0.10617
  42        5PX        -0.00429   0.00502   0.00437   0.02141   0.03192
  43        5PY        -0.00248   0.00290   0.02141  -0.02035   0.01889
  44        5PZ         0.00000   0.00000   0.00000   0.00000   0.00000
  45        6D 0        0.00031  -0.00551  -0.00578  -0.00334  -0.00368
  46        6D+1        0.00000   0.00000   0.00000   0.00000   0.00000
  47        6D-1        0.00000   0.00000   0.00000   0.00000   0.00000
  48        6D+2       -0.00002  -0.00087  -0.00409   0.00380   0.00314
  49        6D-2       -0.00004  -0.00150  -0.00093  -0.00409  -0.00191
  50        7D 0        0.00150  -0.00610  -0.00367  -0.00212   0.00118
  51        7D+1        0.00000   0.00000   0.00000   0.00000   0.00000
  52        7D-1        0.00000   0.00000   0.00000   0.00000   0.00000
  53        7D+2        0.00186   0.00043  -0.00744   0.00553  -0.00161
  54        7D-2        0.00322   0.00075  -0.00306  -0.00744  -0.00418
  55 3   C  1S          0.22996  -0.05125  -0.06216   0.03589   0.04885
  56        2S          0.18908  -0.07987  -0.09751   0.05630   0.07749
  57        2PX         0.00020  -0.02528   0.00351   0.02784   0.00292
  58        2PY        -0.00011   0.01460   0.02784   0.03565   0.05346
  59        2PZ         0.00000   0.00000   0.00000   0.00000   0.00000
  60        3S          0.00800   0.20374   0.25268  -0.14589  -0.20981
  61        3PX        -0.00069  -0.03682   0.00233   0.04149   0.00677
  62        3PY         0.00040   0.02126   0.04149   0.05024   0.07563
  63        3PZ         0.00000   0.00000   0.00000   0.00000   0.00000
  64        4S         -0.00591   0.10061   0.12709  -0.07338  -0.13430
  65        4PX         0.00697  -0.00619   0.00704   0.01592  -0.00049
  66        4PY        -0.00402   0.00358   0.01592   0.02542   0.03056
  67        4PZ         0.00000   0.00000   0.00000   0.00000   0.00000
  68        5S         -0.02179   0.00052   0.03294  -0.01902   0.10617
  69        5PX         0.00429   0.00502   0.00437  -0.02141  -0.03192
  70        5PY        -0.00248  -0.00290  -0.02141  -0.02035   0.01889
  71        5PZ         0.00000   0.00000   0.00000   0.00000   0.00000
  72        6D 0       -0.00031  -0.00551  -0.00578   0.00334   0.00368
  73        6D+1        0.00000   0.00000   0.00000   0.00000   0.00000
  74        6D-1        0.00000   0.00000   0.00000   0.00000   0.00000
  75        6D+2        0.00002  -0.00087  -0.00409  -0.00380  -0.00314
  76        6D-2       -0.00004   0.00150   0.00093  -0.00409  -0.00191
  77        7D 0       -0.00150  -0.00610  -0.00367   0.00212  -0.00118
  78        7D+1        0.00000   0.00000   0.00000   0.00000   0.00000
  79        7D-1        0.00000   0.00000   0.00000   0.00000   0.00000
  80        7D+2       -0.00186   0.00043  -0.00744  -0.00553   0.00161
  81        7D-2        0.00322  -0.00075   0.00306  -0.00744  -0.00418
  82 4   C  1S         -0.22996  -0.05125   0.00000   0.07177   0.00000
  83        2S         -0.18908  -0.07987   0.00000   0.11260   0.00000
  84        2PX         0.00000   0.00000   0.05172   0.00000  -0.09552
  85        2PY         0.00023   0.02919   0.00000  -0.01256   0.00000
  86        2PZ         0.00000   0.00000   0.00000   0.00000   0.00000
  87        3S         -0.00800   0.20374   0.00000  -0.29178   0.00000
  88        3PX         0.00000   0.00000   0.07420   0.00000  -0.13777
  89        3PY        -0.00080   0.04252   0.00000  -0.02163   0.00000
  90        3PZ         0.00000   0.00000   0.00000   0.00000   0.00000
  91        4S          0.00591   0.10061   0.00000  -0.14676   0.00000
  92        4PX         0.00000   0.00000   0.03461   0.00000  -0.05244
  93        4PY         0.00805   0.00715   0.00000  -0.00215   0.00000
  94        4PZ         0.00000   0.00000   0.00000   0.00000   0.00000
  95        5S          0.02179   0.00052   0.00000  -0.03804   0.00000
  96        5PX         0.00000   0.00000  -0.03271   0.00000  -0.00079
  97        5PY         0.00495  -0.00579   0.00000   0.01673   0.00000
  98        5PZ         0.00000   0.00000   0.00000   0.00000   0.00000
  99        6D 0        0.00031  -0.00551   0.00000   0.00668   0.00000
 100        6D+1        0.00000   0.00000   0.00000   0.00000   0.00000
 101        6D-1        0.00000   0.00000   0.00000   0.00000   0.00000
 102        6D+2        0.00005   0.00174   0.00000  -0.00329   0.00000
 103        6D-2        0.00000   0.00000   0.00616   0.00000  -0.00734
 104        7D 0        0.00150  -0.00610   0.00000   0.00423   0.00000
 105        7D+1        0.00000   0.00000   0.00000   0.00000   0.00000
 106        7D-1        0.00000   0.00000   0.00000   0.00000   0.00000
 107        7D+2       -0.00372  -0.00087   0.00000  -0.00735   0.00000
 108        7D-2        0.00000   0.00000   0.00982   0.00000  -0.00139
 109 5   C  1S          0.22996  -0.05125   0.06216   0.03589  -0.04885
 110        2S          0.18908  -0.07987   0.09751   0.05630  -0.07749
 111        2PX        -0.00020   0.02528   0.00351  -0.02784   0.00292
 112        2PY        -0.00011   0.01460  -0.02784   0.03565  -0.05346
 113        2PZ         0.00000   0.00000   0.00000   0.00000   0.00000
 114        3S          0.00800   0.20374  -0.25268  -0.14589   0.20981
 115        3PX         0.00069   0.03682   0.00233  -0.04149   0.00677
 116        3PY         0.00040   0.02126  -0.04149   0.05024  -0.07563
 117        3PZ         0.00000   0.00000   0.00000   0.00000   0.00000
 118        4S         -0.00591   0.10061  -0.12709  -0.07338   0.13430
 119        4PX        -0.00697   0.00619   0.00704  -0.01592  -0.00049
 120        4PY        -0.00402   0.00358  -0.01592   0.02542  -0.03056
 121        4PZ         0.00000   0.00000   0.00000   0.00000   0.00000
 122        5S         -0.02179   0.00052  -0.03294  -0.01902  -0.10617
 123        5PX        -0.00429  -0.00502   0.00437   0.02141  -0.03192
 124        5PY        -0.00248  -0.00290   0.02141  -0.02035  -0.01889
 125        5PZ         0.00000   0.00000   0.00000   0.00000   0.00000
 126        6D 0       -0.00031  -0.00551   0.00578   0.00334  -0.00368
 127        6D+1        0.00000   0.00000   0.00000   0.00000   0.00000
 128        6D-1        0.00000   0.00000   0.00000   0.00000   0.00000
 129        6D+2        0.00002  -0.00087   0.00409  -0.00380   0.00314
 130        6D-2        0.00004  -0.00150   0.00093   0.00409  -0.00191
 131        7D 0       -0.00150  -0.00610   0.00367   0.00212   0.00118
 132        7D+1        0.00000   0.00000   0.00000   0.00000   0.00000
 133        7D-1        0.00000   0.00000   0.00000   0.00000   0.00000
 134        7D+2       -0.00186   0.00043   0.00744  -0.00553  -0.00161
 135        7D-2       -0.00322   0.00075   0.00306   0.00744  -0.00418
 136 6   C  1S         -0.22996  -0.05125   0.06216  -0.03589   0.04885
 137        2S         -0.18908  -0.07987   0.09751  -0.05630   0.07749
 138        2PX         0.00020   0.02528   0.00351   0.02784  -0.00292
 139        2PY        -0.00011  -0.01460   0.02784   0.03565  -0.05346
 140        2PZ         0.00000   0.00000   0.00000   0.00000   0.00000
 141        3S         -0.00800   0.20374  -0.25268   0.14589  -0.20981
 142        3PX        -0.00069   0.03682   0.00233   0.04149  -0.00677
 143        3PY         0.00040  -0.02126   0.04149   0.05024  -0.07563
 144        3PZ         0.00000   0.00000   0.00000   0.00000   0.00000
 145        4S          0.00591   0.10061  -0.12709   0.07338  -0.13430
 146        4PX         0.00697   0.00619   0.00704   0.01592   0.00049
 147        4PY        -0.00402  -0.00358   0.01592   0.02542  -0.03056
 148        4PZ         0.00000   0.00000   0.00000   0.00000   0.00000
 149        5S          0.02179   0.00052  -0.03294   0.01902   0.10617
 150        5PX         0.00429  -0.00502   0.00437  -0.02141   0.03192
 151        5PY        -0.00248   0.00290  -0.02141  -0.02035  -0.01889
 152        5PZ         0.00000   0.00000   0.00000   0.00000   0.00000
 153        6D 0        0.00031  -0.00551   0.00578  -0.00334   0.00368
 154        6D+1        0.00000   0.00000   0.00000   0.00000   0.00000
 155        6D-1        0.00000   0.00000   0.00000   0.00000   0.00000
 156        6D+2       -0.00002  -0.00087   0.00409   0.00380  -0.00314
 157        6D-2        0.00004   0.00150  -0.00093   0.00409  -0.00191
 158        7D 0        0.00150  -0.00610   0.00367  -0.00212  -0.00118
 159        7D+1        0.00000   0.00000   0.00000   0.00000   0.00000
 160        7D-1        0.00000   0.00000   0.00000   0.00000   0.00000
 161        7D+2        0.00186   0.00043   0.00744   0.00553   0.00161
 162        7D-2       -0.00322  -0.00075  -0.00306   0.00744  -0.00418
 163 7   H  1S          0.00047   0.02040   0.00000   0.04631   0.00000
 164        2S         -0.00127   0.02111   0.00000   0.06377   0.00000
 165        3S         -0.00239  -0.00956   0.00000  -0.00951   0.00000
 166        4PX         0.00000   0.00000   0.00235   0.00000   0.00375
 167        4PY         0.00040  -0.00464   0.00000  -0.01130   0.00000
 168        4PZ         0.00000   0.00000   0.00000   0.00000   0.00000
 169 8   H  1S         -0.00047   0.02040   0.04010   0.02315   0.05863
 170        2S          0.00127   0.02111   0.05523   0.03189   0.08670
 171        3S          0.00239  -0.00956  -0.00824  -0.00476   0.00057
 172        4PX        -0.00034  -0.00402  -0.00789  -0.00591  -0.01130
 173        4PY        -0.00020  -0.00232  -0.00591  -0.00106  -0.00436
 174        4PZ         0.00000   0.00000   0.00000   0.00000   0.00000
 175 9   H  1S          0.00047   0.02040   0.04010  -0.02315  -0.05863
 176        2S         -0.00127   0.02111   0.05523  -0.03189  -0.08670
 177        3S         -0.00239  -0.00956  -0.00824   0.00476  -0.00057
 178        4PX         0.00034  -0.00402  -0.00789   0.00591   0.01130
 179        4PY        -0.00020   0.00232   0.00591  -0.00106  -0.00436
 180        4PZ         0.00000   0.00000   0.00000   0.00000   0.00000
 181 10  H  1S         -0.00047   0.02040   0.00000  -0.04631   0.00000
 182        2S          0.00127   0.02111   0.00000  -0.06377   0.00000
 183        3S          0.00239  -0.00956   0.00000   0.00951   0.00000
 184        4PX         0.00000   0.00000   0.00235   0.00000  -0.00375
 185        4PY         0.00040   0.00464   0.00000  -0.01130   0.00000
 186        4PZ         0.00000   0.00000   0.00000   0.00000   0.00000
 187 11  H  1S          0.00047   0.02040  -0.04010  -0.02315   0.05863
 188        2S         -0.00127   0.02111  -0.05523  -0.03189   0.08670
 189        3S         -0.00239  -0.00956   0.00824   0.00476   0.00057
 190        4PX        -0.00034   0.00402  -0.00789  -0.00591   0.01130
 191        4PY        -0.00020   0.00232  -0.00591  -0.00106   0.00436
 192        4PZ         0.00000   0.00000   0.00000   0.00000   0.00000
 193 12  H  1S         -0.00047   0.02040  -0.04010   0.02315  -0.05863
 194        2S          0.00127   0.02111  -0.05523   0.03189  -0.08670
 195        3S          0.00239  -0.00956   0.00824  -0.00476  -0.00057
 196        4PX         0.00034   0.00402  -0.00789   0.00591  -0.01130
 197        4PY        -0.00020  -0.00232   0.00591  -0.00106   0.00436
 198        4PZ         0.00000   0.00000   0.00000   0.00000   0.00000
                          11        12        13        14        15
                       (E2G)--O  (A1G)--O  (B1U)--O  (B2U)--O  (E1U)--O
     Eigenvalues --    -0.61632  -0.53488  -0.46891  -0.46030  -0.43086
   1 1   C  1S         -0.05641  -0.00567  -0.03235   0.00000   0.00000
   2        2S         -0.08947  -0.00860  -0.05158   0.00000   0.00000
   3        2PX         0.00000   0.00000   0.00000   0.12758  -0.03792
   4        2PY         0.02795   0.08984   0.05921   0.00000   0.00000
   5        2PZ         0.00000   0.00000   0.00000   0.00000   0.00000
   6        3S          0.24227   0.01728   0.13894   0.00000   0.00000
   7        3PX         0.00000   0.00000   0.00000   0.18743  -0.05747
   8        3PY         0.03690   0.12664   0.08188   0.00000   0.00000
   9        3PZ         0.00000   0.00000   0.00000   0.00000   0.00000
  10        4S          0.15508   0.02783   0.10408   0.00000   0.00000
  11        4PX         0.00000   0.00000   0.00000   0.08404  -0.03370
  12        4PY         0.01814   0.05399   0.03895   0.00000   0.00000
  13        4PZ         0.00000   0.00000   0.00000   0.00000   0.00000
  14        5S         -0.12259   0.00492   0.23011   0.00000   0.00000
  15        5PX         0.00000   0.00000   0.00000   0.00241   0.02693
  16        5PY         0.04283   0.00234  -0.03337   0.00000   0.00000
  17        5PZ         0.00000   0.00000   0.00000   0.00000   0.00000
  18        6D 0       -0.00425   0.00033  -0.00158   0.00000   0.00000
  19        6D+1        0.00000   0.00000   0.00000   0.00000   0.00000
  20        6D-1        0.00000   0.00000   0.00000   0.00000   0.00000
  21        6D+2        0.00009   0.00058  -0.00711   0.00000   0.00000
  22        6D-2        0.00000   0.00000   0.00000  -0.00740   0.00908
  23        7D 0        0.00136   0.00118   0.00523   0.00000   0.00000
  24        7D+1        0.00000   0.00000   0.00000   0.00000   0.00000
  25        7D-1        0.00000   0.00000   0.00000   0.00000   0.00000
  26        7D+2        0.00511   0.01419  -0.01852   0.00000   0.00000
  27        7D-2        0.00000   0.00000   0.00000   0.00536   0.01428
  28 2   C  1S          0.02821  -0.00567   0.03235   0.00000   0.01051
  29        2S          0.04474  -0.00860   0.05158   0.00000   0.01739
  30        2PX        -0.05346   0.07781  -0.05127  -0.06379   0.09339
  31        2PY         0.06466   0.04492  -0.02960   0.11049   0.07581
  32        2PZ         0.00000   0.00000   0.00000   0.00000   0.00000
  33        3S         -0.12113   0.01728  -0.13894   0.00000  -0.05493
  34        3PX        -0.07563   0.10967  -0.07091  -0.09371   0.13457
  35        3PY         0.09410   0.06332  -0.04094   0.16232   0.11087
  36        3PZ         0.00000   0.00000   0.00000   0.00000   0.00000
  37        4S         -0.07754   0.02783  -0.10408   0.00000  -0.00654
  38        4PX        -0.03056   0.04676  -0.03373  -0.04202   0.06939
  39        4PY         0.03480   0.02699  -0.01948   0.07278   0.05952
  40        4PZ         0.00000   0.00000   0.00000   0.00000   0.00000
  41        5S          0.06129   0.00492  -0.23011   0.00000  -0.04754
  42        5PX        -0.01889   0.00202   0.02890  -0.00121   0.01563
  43        5PY        -0.01011   0.00117   0.01669   0.00209  -0.00653
  44        5PZ         0.00000   0.00000   0.00000   0.00000   0.00000
  45        6D 0        0.00213   0.00033   0.00158   0.00000   0.00122
  46        6D+1        0.00000   0.00000   0.00000   0.00000   0.00000
  47        6D-1        0.00000   0.00000   0.00000   0.00000   0.00000
  48        6D+2        0.00553  -0.00029  -0.00356   0.00641   0.00651
  49        6D-2       -0.00314  -0.00051  -0.00616  -0.00370   0.00220
  50        7D 0       -0.00068   0.00118  -0.00523   0.00000  -0.00267
  51        7D+1        0.00000   0.00000   0.00000   0.00000   0.00000
  52        7D-1        0.00000   0.00000   0.00000   0.00000   0.00000
  53        7D+2        0.00232  -0.00709  -0.00926  -0.00464   0.00488
  54        7D-2        0.00161  -0.01229  -0.01604   0.00268  -0.00583
  55 3   C  1S          0.02821  -0.00567  -0.03235   0.00000   0.01051
  56        2S          0.04474  -0.00860  -0.05158   0.00000   0.01739
  57        2PX        -0.05346   0.07781   0.05127  -0.06379   0.09339
  58        2PY        -0.06466  -0.04492  -0.02960  -0.11049  -0.07581
  59        2PZ         0.00000   0.00000   0.00000   0.00000   0.00000
  60        3S         -0.12113   0.01728   0.13894   0.00000  -0.05493
  61        3PX        -0.07563   0.10967   0.07091  -0.09371   0.13457
  62        3PY        -0.09410  -0.06332  -0.04094  -0.16232  -0.11087
  63        3PZ         0.00000   0.00000   0.00000   0.00000   0.00000
  64        4S         -0.07754   0.02783   0.10408   0.00000  -0.00654
  65        4PX        -0.03056   0.04676   0.03373  -0.04202   0.06939
  66        4PY        -0.03480  -0.02699  -0.01948  -0.07278  -0.05952
  67        4PZ         0.00000   0.00000   0.00000   0.00000   0.00000
  68        5S          0.06129   0.00492   0.23011   0.00000  -0.04754
  69        5PX        -0.01889   0.00202  -0.02890  -0.00121   0.01563
  70        5PY         0.01011  -0.00117   0.01669  -0.00209   0.00653
  71        5PZ         0.00000   0.00000   0.00000   0.00000   0.00000
  72        6D 0        0.00213   0.00033  -0.00158   0.00000   0.00122
  73        6D+1        0.00000   0.00000   0.00000   0.00000   0.00000
  74        6D-1        0.00000   0.00000   0.00000   0.00000   0.00000
  75        6D+2        0.00553  -0.00029   0.00356   0.00641   0.00651
  76        6D-2        0.00314   0.00051  -0.00616   0.00370  -0.00220
  77        7D 0       -0.00068   0.00118   0.00523   0.00000  -0.00267
  78        7D+1        0.00000   0.00000   0.00000   0.00000   0.00000
  79        7D-1        0.00000   0.00000   0.00000   0.00000   0.00000
  80        7D+2        0.00232  -0.00709   0.00926  -0.00464   0.00488
  81        7D-2       -0.00161   0.01229  -0.01604  -0.00268   0.00583
  82 4   C  1S         -0.05641  -0.00567   0.03235   0.00000   0.00000
  83        2S         -0.08947  -0.00860   0.05158   0.00000   0.00000
  84        2PX         0.00000   0.00000   0.00000   0.12758  -0.03792
  85        2PY        -0.02795  -0.08984   0.05921   0.00000   0.00000
  86        2PZ         0.00000   0.00000   0.00000   0.00000   0.00000
  87        3S          0.24227   0.01728  -0.13894   0.00000   0.00000
  88        3PX         0.00000   0.00000   0.00000   0.18743  -0.05747
  89        3PY        -0.03690  -0.12664   0.08188   0.00000   0.00000
  90        3PZ         0.00000   0.00000   0.00000   0.00000   0.00000
  91        4S          0.15508   0.02783  -0.10408   0.00000   0.00000
  92        4PX         0.00000   0.00000   0.00000   0.08404  -0.03370
  93        4PY        -0.01814  -0.05399   0.03895   0.00000   0.00000
  94        4PZ         0.00000   0.00000   0.00000   0.00000   0.00000
  95        5S         -0.12259   0.00492  -0.23011   0.00000   0.00000
  96        5PX         0.00000   0.00000   0.00000   0.00241   0.02693
  97        5PY        -0.04283  -0.00234  -0.03337   0.00000   0.00000
  98        5PZ         0.00000   0.00000   0.00000   0.00000   0.00000
  99        6D 0       -0.00425   0.00033   0.00158   0.00000   0.00000
 100        6D+1        0.00000   0.00000   0.00000   0.00000   0.00000
 101        6D-1        0.00000   0.00000   0.00000   0.00000   0.00000
 102        6D+2        0.00009   0.00058   0.00711   0.00000   0.00000
 103        6D-2        0.00000   0.00000   0.00000   0.00740  -0.00908
 104        7D 0        0.00136   0.00118  -0.00523   0.00000   0.00000
 105        7D+1        0.00000   0.00000   0.00000   0.00000   0.00000
 106        7D-1        0.00000   0.00000   0.00000   0.00000   0.00000
 107        7D+2        0.00511   0.01419   0.01852   0.00000   0.00000
 108        7D-2        0.00000   0.00000   0.00000  -0.00536  -0.01428
 109 5   C  1S          0.02821  -0.00567  -0.03235   0.00000  -0.01051
 110        2S          0.04474  -0.00860  -0.05158   0.00000  -0.01739
 111        2PX         0.05346  -0.07781  -0.05127  -0.06379   0.09339
 112        2PY        -0.06466  -0.04492  -0.02960   0.11049   0.07581
 113        2PZ         0.00000   0.00000   0.00000   0.00000   0.00000
 114        3S         -0.12113   0.01728   0.13894   0.00000   0.05493
 115        3PX         0.07563  -0.10967  -0.07091  -0.09371   0.13457
 116        3PY        -0.09410  -0.06332  -0.04094   0.16232   0.11087
 117        3PZ         0.00000   0.00000   0.00000   0.00000   0.00000
 118        4S         -0.07754   0.02783   0.10408   0.00000   0.00654
 119        4PX         0.03056  -0.04676  -0.03373  -0.04202   0.06939
 120        4PY        -0.03480  -0.02699  -0.01948   0.07278   0.05952
 121        4PZ         0.00000   0.00000   0.00000   0.00000   0.00000
 122        5S          0.06129   0.00492   0.23011   0.00000   0.04754
 123        5PX         0.01889  -0.00202   0.02890  -0.00121   0.01563
 124        5PY         0.01011  -0.00117   0.01669   0.00209  -0.00653
 125        5PZ         0.00000   0.00000   0.00000   0.00000   0.00000
 126        6D 0        0.00213   0.00033  -0.00158   0.00000  -0.00122
 127        6D+1        0.00000   0.00000   0.00000   0.00000   0.00000
 128        6D-1        0.00000   0.00000   0.00000   0.00000   0.00000
 129        6D+2        0.00553  -0.00029   0.00356  -0.00641  -0.00651
 130        6D-2       -0.00314  -0.00051   0.00616   0.00370  -0.00220
 131        7D 0       -0.00068   0.00118   0.00523   0.00000   0.00267
 132        7D+1        0.00000   0.00000   0.00000   0.00000   0.00000
 133        7D-1        0.00000   0.00000   0.00000   0.00000   0.00000
 134        7D+2        0.00232  -0.00709   0.00926   0.00464  -0.00488
 135        7D-2        0.00161  -0.01229   0.01604  -0.00268   0.00583
 136 6   C  1S          0.02821  -0.00567   0.03235   0.00000  -0.01051
 137        2S          0.04474  -0.00860   0.05158   0.00000  -0.01739
 138        2PX         0.05346  -0.07781   0.05127  -0.06379   0.09339
 139        2PY         0.06466   0.04492  -0.02960  -0.11049  -0.07581
 140        2PZ         0.00000   0.00000   0.00000   0.00000   0.00000
 141        3S         -0.12113   0.01728  -0.13894   0.00000   0.05493
 142        3PX         0.07563  -0.10967   0.07091  -0.09371   0.13457
 143        3PY         0.09410   0.06332  -0.04094  -0.16232  -0.11087
 144        3PZ         0.00000   0.00000   0.00000   0.00000   0.00000
 145        4S         -0.07754   0.02783  -0.10408   0.00000   0.00654
 146        4PX         0.03056  -0.04676   0.03373  -0.04202   0.06939
 147        4PY         0.03480   0.02699  -0.01948  -0.07278  -0.05952
 148        4PZ         0.00000   0.00000   0.00000   0.00000   0.00000
 149        5S          0.06129   0.00492  -0.23011   0.00000   0.04754
 150        5PX         0.01889  -0.00202  -0.02890  -0.00121   0.01563
 151        5PY        -0.01011   0.00117   0.01669  -0.00209   0.00653
 152        5PZ         0.00000   0.00000   0.00000   0.00000   0.00000
 153        6D 0        0.00213   0.00033   0.00158   0.00000  -0.00122
 154        6D+1        0.00000   0.00000   0.00000   0.00000   0.00000
 155        6D-1        0.00000   0.00000   0.00000   0.00000   0.00000
 156        6D+2        0.00553  -0.00029  -0.00356  -0.00641  -0.00651
 157        6D-2        0.00314   0.00051   0.00616  -0.00370   0.00220
 158        7D 0       -0.00068   0.00118  -0.00523   0.00000   0.00267
 159        7D+1        0.00000   0.00000   0.00000   0.00000   0.00000
 160        7D-1        0.00000   0.00000   0.00000   0.00000   0.00000
 161        7D+2        0.00232  -0.00709  -0.00926   0.00464  -0.00488
 162        7D-2       -0.00161   0.01229   0.01604   0.00268  -0.00583
 163 7   H  1S          0.06770   0.06667   0.08404   0.00000   0.00000
 164        2S          0.10011   0.10535   0.12745   0.00000   0.00000
 165        3S          0.00065   0.01727   0.03443   0.00000   0.00000
 166        4PX         0.00000   0.00000   0.00000   0.00558  -0.00108
 167        4PY        -0.01382  -0.01083  -0.01253   0.00000   0.00000
 168        4PZ         0.00000   0.00000   0.00000   0.00000   0.00000
 169 8   H  1S         -0.03385   0.06667  -0.08404   0.00000   0.08671
 170        2S         -0.05005   0.10535  -0.12745   0.00000   0.13328
 171        3S         -0.00033   0.01727  -0.03443   0.00000   0.04402
 172        4PX         0.00436  -0.00938   0.01085  -0.00279  -0.00860
 173        4PY         0.00626  -0.00542   0.00627   0.00483  -0.00434
 174        4PZ         0.00000   0.00000   0.00000   0.00000   0.00000
 175 9   H  1S         -0.03385   0.06667   0.08404   0.00000   0.08671
 176        2S         -0.05005   0.10535   0.12745   0.00000   0.13328
 177        3S         -0.00033   0.01727   0.03443   0.00000   0.04402
 178        4PX         0.00436  -0.00938  -0.01085  -0.00279  -0.00860
 179        4PY        -0.00626   0.00542   0.00627  -0.00483   0.00434
 180        4PZ         0.00000   0.00000   0.00000   0.00000   0.00000
 181 10  H  1S          0.06770   0.06667  -0.08404   0.00000   0.00000
 182        2S          0.10011   0.10535  -0.12745   0.00000   0.00000
 183        3S          0.00065   0.01727  -0.03443   0.00000   0.00000
 184        4PX         0.00000   0.00000   0.00000   0.00558  -0.00108
 185        4PY         0.01382   0.01083  -0.01253   0.00000   0.00000
 186        4PZ         0.00000   0.00000   0.00000   0.00000   0.00000
 187 11  H  1S         -0.03385   0.06667   0.08404   0.00000  -0.08671
 188        2S         -0.05005   0.10535   0.12745   0.00000  -0.13328
 189        3S         -0.00033   0.01727   0.03443   0.00000  -0.04402
 190        4PX        -0.00436   0.00938   0.01085  -0.00279  -0.00860
 191        4PY        -0.00626   0.00542   0.00627   0.00483  -0.00434
 192        4PZ         0.00000   0.00000   0.00000   0.00000   0.00000
 193 12  H  1S         -0.03385   0.06667  -0.08404   0.00000  -0.08671
 194        2S         -0.05005   0.10535  -0.12745   0.00000  -0.13328
 195        3S         -0.00033   0.01727  -0.03443   0.00000  -0.04402
 196        4PX        -0.00436   0.00938  -0.01085  -0.00279  -0.00860
 197        4PY         0.00626  -0.00542   0.00627  -0.00483   0.00434
 198        4PZ         0.00000   0.00000   0.00000   0.00000   0.00000
                          16        17        18        19        20
                       (E1U)--O  (A2U)--O  (E2G)--O  (E2G)--O  (E1G)--O
     Eigenvalues --    -0.43086  -0.38100  -0.35308  -0.35308  -0.26537
   1 1   C  1S          0.01214   0.00000   0.00000  -0.00201   0.00000
   2        2S          0.02009   0.00000   0.00000  -0.00359   0.00000
   3        2PX         0.00000   0.00000   0.12061   0.00000   0.00000
   4        2PY         0.13715   0.00000   0.00000  -0.10259   0.00000
   5        2PZ         0.00000   0.09807   0.00000   0.00000   0.15017
   6        3S         -0.06343   0.00000   0.00000   0.01551   0.00000
   7        3PX         0.00000   0.00000   0.17219   0.00000   0.00000
   8        3PY         0.19858   0.00000   0.00000  -0.14281   0.00000
   9        3PZ         0.00000   0.15920   0.00000   0.00000   0.23821
  10        4S         -0.00756   0.00000   0.00000  -0.02399   0.00000
  11        4PX         0.00000   0.00000   0.10075   0.00000   0.00000
  12        4PY         0.10376   0.00000   0.00000  -0.07981   0.00000
  13        4PZ         0.00000   0.10676   0.00000   0.00000   0.19951
  14        5S         -0.05489   0.00000   0.00000  -0.04088   0.00000
  15        5PX         0.00000   0.00000   0.01079   0.00000   0.00000
  16        5PY         0.01186   0.00000   0.00000  -0.00709   0.00000
  17        5PZ         0.00000   0.00469   0.00000   0.00000   0.03504
  18        6D 0        0.00140   0.00000   0.00000  -0.00049   0.00000
  19        6D+1        0.00000   0.00000   0.00000   0.00000   0.00000
  20        6D-1        0.00000  -0.00572   0.00000   0.00000  -0.00410
  21        6D+2       -0.00596   0.00000   0.00000   0.01328   0.00000
  22        6D-2        0.00000   0.00000  -0.01037   0.00000   0.00000
  23        7D 0       -0.00309   0.00000   0.00000  -0.00027   0.00000
  24        7D+1        0.00000   0.00000   0.00000   0.00000   0.00000
  25        7D-1        0.00000  -0.01084   0.00000   0.00000  -0.00320
  26        7D+2        0.00302   0.00000   0.00000   0.02289   0.00000
  27        7D-2        0.00000   0.00000  -0.00997   0.00000   0.00000
  28 2   C  1S          0.00607   0.00000  -0.00174   0.00101   0.00000
  29        2S          0.01004   0.00000  -0.00311   0.00180   0.00000
  30        2PX         0.07581   0.00000  -0.10709  -0.00780   0.00000
  31        2PY         0.00585   0.00000   0.00780   0.11610   0.00000
  32        2PZ         0.00000   0.09807   0.00000   0.00000   0.07509
  33        3S         -0.03172   0.00000   0.01343  -0.00775   0.00000
  34        3PX         0.11087   0.00000  -0.15015  -0.01272   0.00000
  35        3PY         0.00654   0.00000   0.01272   0.16485   0.00000
  36        3PZ         0.00000   0.15920   0.00000   0.00000   0.11910
  37        4S         -0.00378   0.00000  -0.02077   0.01199   0.00000
  38        4PX         0.05952   0.00000  -0.08504  -0.00907   0.00000
  39        4PY         0.00067   0.00000   0.00907   0.09551   0.00000
  40        4PZ         0.00000   0.10676   0.00000   0.00000   0.09976
  41        5S         -0.02745   0.00000  -0.03541   0.02044   0.00000
  42        5PX        -0.00653   0.00000  -0.00801  -0.00160   0.00000
  43        5PY         0.02316   0.00000   0.00160   0.00986   0.00000
  44        5PZ         0.00000   0.00469   0.00000   0.00000   0.01752
  45        6D 0        0.00070   0.00000  -0.00043   0.00025   0.00000
  46        6D+1        0.00000  -0.00495   0.00000   0.00000  -0.00617
  47        6D-1        0.00000  -0.00286   0.00000   0.00000   0.00659
  48        6D+2       -0.00532   0.00000  -0.00126   0.01110   0.00000
  49        6D-2        0.00651   0.00000  -0.01256   0.00126   0.00000
  50        7D 0       -0.00154   0.00000  -0.00023   0.00013   0.00000
  51        7D+1        0.00000  -0.00938   0.00000   0.00000  -0.01631
  52        7D-1        0.00000  -0.00542   0.00000   0.00000   0.02506
  53        7D+2       -0.01146   0.00000  -0.00559   0.01320   0.00000
  54        7D-2        0.00488   0.00000  -0.01966   0.00559   0.00000
  55 3   C  1S         -0.00607   0.00000   0.00174   0.00101   0.00000
  56        2S         -0.01004   0.00000   0.00311   0.00180   0.00000
  57        2PX        -0.07581   0.00000   0.10709  -0.00780   0.00000
  58        2PY         0.00585   0.00000   0.00780  -0.11610   0.00000
  59        2PZ         0.00000   0.09807   0.00000   0.00000  -0.07509
  60        3S          0.03172   0.00000  -0.01343  -0.00775   0.00000
  61        3PX        -0.11087   0.00000   0.15015  -0.01272   0.00000
  62        3PY         0.00654   0.00000   0.01272  -0.16485   0.00000
  63        3PZ         0.00000   0.15920   0.00000   0.00000  -0.11910
  64        4S          0.00378   0.00000   0.02077   0.01199   0.00000
  65        4PX        -0.05952   0.00000   0.08504  -0.00907   0.00000
  66        4PY         0.00067   0.00000   0.00907  -0.09551   0.00000
  67        4PZ         0.00000   0.10676   0.00000   0.00000  -0.09976
  68        5S          0.02745   0.00000   0.03541   0.02044   0.00000
  69        5PX         0.00653   0.00000   0.00801  -0.00160   0.00000
  70        5PY         0.02316   0.00000   0.00160  -0.00986   0.00000
  71        5PZ         0.00000   0.00469   0.00000   0.00000  -0.01752
  72        6D 0       -0.00070   0.00000   0.00043   0.00025   0.00000
  73        6D+1        0.00000  -0.00495   0.00000   0.00000   0.00617
  74        6D-1        0.00000   0.00286   0.00000   0.00000   0.00659
  75        6D+2        0.00532   0.00000   0.00126   0.01110   0.00000
  76        6D-2        0.00651   0.00000  -0.01256  -0.00126   0.00000
  77        7D 0        0.00154   0.00000   0.00023   0.00013   0.00000
  78        7D+1        0.00000  -0.00938   0.00000   0.00000   0.01631
  79        7D-1        0.00000   0.00542   0.00000   0.00000   0.02506
  80        7D+2        0.01146   0.00000   0.00559   0.01320   0.00000
  81        7D-2        0.00488   0.00000  -0.01966  -0.00559   0.00000
  82 4   C  1S         -0.01214   0.00000   0.00000  -0.00201   0.00000
  83        2S         -0.02009   0.00000   0.00000  -0.00359   0.00000
  84        2PX         0.00000   0.00000  -0.12061   0.00000   0.00000
  85        2PY         0.13715   0.00000   0.00000   0.10259   0.00000
  86        2PZ         0.00000   0.09807   0.00000   0.00000  -0.15017
  87        3S          0.06343   0.00000   0.00000   0.01551   0.00000
  88        3PX         0.00000   0.00000  -0.17219   0.00000   0.00000
  89        3PY         0.19858   0.00000   0.00000   0.14281   0.00000
  90        3PZ         0.00000   0.15920   0.00000   0.00000  -0.23821
  91        4S          0.00756   0.00000   0.00000  -0.02399   0.00000
  92        4PX         0.00000   0.00000  -0.10075   0.00000   0.00000
  93        4PY         0.10376   0.00000   0.00000   0.07981   0.00000
  94        4PZ         0.00000   0.10676   0.00000   0.00000  -0.19951
  95        5S          0.05489   0.00000   0.00000  -0.04088   0.00000
  96        5PX         0.00000   0.00000  -0.01079   0.00000   0.00000
  97        5PY         0.01186   0.00000   0.00000   0.00709   0.00000
  98        5PZ         0.00000   0.00469   0.00000   0.00000  -0.03504
  99        6D 0       -0.00140   0.00000   0.00000  -0.00049   0.00000
 100        6D+1        0.00000   0.00000   0.00000   0.00000   0.00000
 101        6D-1        0.00000   0.00572   0.00000   0.00000  -0.00410
 102        6D+2        0.00596   0.00000   0.00000   0.01328   0.00000
 103        6D-2        0.00000   0.00000  -0.01037   0.00000   0.00000
 104        7D 0        0.00309   0.00000   0.00000  -0.00027   0.00000
 105        7D+1        0.00000   0.00000   0.00000   0.00000   0.00000
 106        7D-1        0.00000   0.01084   0.00000   0.00000  -0.00320
 107        7D+2       -0.00302   0.00000   0.00000   0.02289   0.00000
 108        7D-2        0.00000   0.00000  -0.00997   0.00000   0.00000
 109 5   C  1S         -0.00607   0.00000  -0.00174   0.00101   0.00000
 110        2S         -0.01004   0.00000  -0.00311   0.00180   0.00000
 111        2PX         0.07581   0.00000   0.10709   0.00780   0.00000
 112        2PY         0.00585   0.00000  -0.00780  -0.11610   0.00000
 113        2PZ         0.00000   0.09807   0.00000   0.00000  -0.07509
 114        3S          0.03172   0.00000   0.01343  -0.00775   0.00000
 115        3PX         0.11087   0.00000   0.15015   0.01272   0.00000
 116        3PY         0.00654   0.00000  -0.01272  -0.16485   0.00000
 117        3PZ         0.00000   0.15920   0.00000   0.00000  -0.11910
 118        4S          0.00378   0.00000  -0.02077   0.01199   0.00000
 119        4PX         0.05952   0.00000   0.08504   0.00907   0.00000
 120        4PY         0.00067   0.00000  -0.00907  -0.09551   0.00000
 121        4PZ         0.00000   0.10676   0.00000   0.00000  -0.09976
 122        5S          0.02745   0.00000  -0.03541   0.02044   0.00000
 123        5PX        -0.00653   0.00000   0.00801   0.00160   0.00000
 124        5PY         0.02316   0.00000  -0.00160  -0.00986   0.00000
 125        5PZ         0.00000   0.00469   0.00000   0.00000  -0.01752
 126        6D 0       -0.00070   0.00000  -0.00043   0.00025   0.00000
 127        6D+1        0.00000   0.00495   0.00000   0.00000  -0.00617
 128        6D-1        0.00000   0.00286   0.00000   0.00000   0.00659
 129        6D+2        0.00532   0.00000  -0.00126   0.01110   0.00000
 130        6D-2       -0.00651   0.00000  -0.01256   0.00126   0.00000
 131        7D 0        0.00154   0.00000  -0.00023   0.00013   0.00000
 132        7D+1        0.00000   0.00938   0.00000   0.00000  -0.01631
 133        7D-1        0.00000   0.00542   0.00000   0.00000   0.02506
 134        7D+2        0.01146   0.00000  -0.00559   0.01320   0.00000
 135        7D-2       -0.00488   0.00000  -0.01966   0.00559   0.00000
 136 6   C  1S          0.00607   0.00000   0.00174   0.00101   0.00000
 137        2S          0.01004   0.00000   0.00311   0.00180   0.00000
 138        2PX        -0.07581   0.00000  -0.10709   0.00780   0.00000
 139        2PY         0.00585   0.00000  -0.00780   0.11610   0.00000
 140        2PZ         0.00000   0.09807   0.00000   0.00000   0.07509
 141        3S         -0.03172   0.00000  -0.01343  -0.00775   0.00000
 142        3PX        -0.11087   0.00000  -0.15015   0.01272   0.00000
 143        3PY         0.00654   0.00000  -0.01272   0.16485   0.00000
 144        3PZ         0.00000   0.15920   0.00000   0.00000   0.11910
 145        4S         -0.00378   0.00000   0.02077   0.01199   0.00000
 146        4PX        -0.05952   0.00000  -0.08504   0.00907   0.00000
 147        4PY         0.00067   0.00000  -0.00907   0.09551   0.00000
 148        4PZ         0.00000   0.10676   0.00000   0.00000   0.09976
 149        5S         -0.02745   0.00000   0.03541   0.02044   0.00000
 150        5PX         0.00653   0.00000  -0.00801   0.00160   0.00000
 151        5PY         0.02316   0.00000  -0.00160   0.00986   0.00000
 152        5PZ         0.00000   0.00469   0.00000   0.00000   0.01752
 153        6D 0        0.00070   0.00000   0.00043   0.00025   0.00000
 154        6D+1        0.00000   0.00495   0.00000   0.00000   0.00617
 155        6D-1        0.00000  -0.00286   0.00000   0.00000   0.00659
 156        6D+2       -0.00532   0.00000   0.00126   0.01110   0.00000
 157        6D-2       -0.00651   0.00000  -0.01256  -0.00126   0.00000
 158        7D 0       -0.00154   0.00000   0.00023   0.00013   0.00000
 159        7D+1        0.00000   0.00938   0.00000   0.00000   0.01631
 160        7D-1        0.00000  -0.00542   0.00000   0.00000   0.02506
 161        7D+2       -0.01146   0.00000   0.00559   0.01320   0.00000
 162        7D-2       -0.00488   0.00000  -0.01966  -0.00559   0.00000
 163 7   H  1S          0.10013   0.00000   0.00000  -0.10179   0.00000
 164        2S          0.15390   0.00000   0.00000  -0.16328   0.00000
 165        3S          0.05083   0.00000   0.00000  -0.08347   0.00000
 166        4PX         0.00000   0.00000   0.00624   0.00000   0.00000
 167        4PY        -0.01111   0.00000   0.00000   0.01062   0.00000
 168        4PZ         0.00000   0.00775   0.00000   0.00000   0.01372
 169 8   H  1S          0.05006   0.00000  -0.08816   0.05090   0.00000
 170        2S          0.07695   0.00000  -0.14141   0.08164   0.00000
[...]
 Vib (Bot)    2  0.433652D+00         -0.362858         -0.835512
 Vib (V=0)       0.176465D+01          0.246658          0.567952
 Vib (V=0)    1  0.116186D+01          0.065153          0.150019
 Vib (V=0)    2  0.116186D+01          0.065153          0.150019
 Electronic      0.100000D+01          0.000000          0.000000
 Translational   0.271012D+08          7.432989         17.115090
 Rotational      0.744230D+04          3.871707          8.914935
 ***** Axes restored to original set *****
 -------------------------------------------------------------------
 Center     Atomic                   Forces (Hartrees/Bohr)
 Number     Number              X              Y              Z
 -------------------------------------------------------------------
      1        6           0.000000000   -0.000060535    0.000000000
      2        6           0.000052425   -0.000030267    0.000000000
      3        6           0.000052425    0.000030267    0.000000000
      4        6           0.000000000    0.000060535    0.000000000
      5        6          -0.000052425    0.000030267    0.000000000
      6        6          -0.000052425   -0.000030267    0.000000000
      7        1           0.000000000    0.000020543    0.000000000
      8        1          -0.000017791    0.000010272    0.000000000
      9        1          -0.000017791   -0.000010272    0.000000000
     10        1           0.000000000   -0.000020543    0.000000000
     11        1           0.000017791   -0.000010272    0.000000000
     12        1           0.000017791    0.000010272    0.000000000
 -------------------------------------------------------------------
 Cartesian Forces:  Max     0.000060535 RMS     0.000026097
 FormGI is forming the generalized inverse of G from B-inverse, IUseBI=4.

 GradGradGradGradGradGradGradGradGradGradGradGradGradGradGradGradGradGrad
 Berny optimization.
 Internal  Forces:  Max     0.000039991 RMS     0.000014986
 Search for a local minimum.
 Step number   1 out of a maximum of    2
 All quantities printed in internal units (Hartrees-Bohrs-Radians)
 Second derivative matrix not updated -- analytic derivatives used.
 ITU=  0
     Eigenvalues ---    0.01665   0.01665   0.01782   0.02349   0.02349
     Eigenvalues ---    0.02604   0.02829   0.02829   0.02833   0.10925
     Eigenvalues ---    0.11370   0.11370   0.12081   0.12637   0.12637
     Eigenvalues ---    0.19348   0.19500   0.19500   0.28515   0.35560
     Eigenvalues ---    0.35560   0.35886   0.35886   0.35886   0.36059
     Eigenvalues ---    0.41868   0.41868   0.47421   0.47421   0.52060
 Angle between quadratic step and forces=  10.09 degrees.
 Linear search not attempted -- first point.
 Iteration  1 RMS(Cart)=  0.00002679 RMS(Int)=  0.00000000
 Iteration  2 RMS(Cart)=  0.00000000 RMS(Int)=  0.00000000
 ClnCor:  largest displacement from symmetrization is 1.11D-12 for atom     8.
 Variable       Old X    -DE/DX   Delta X   Delta X   Delta X     New X
                                 (Linear)    (Quad)   (Total)
    R1        2.62671  -0.00004   0.00000  -0.00008  -0.00008   2.62663
    R2        2.62671  -0.00004   0.00000  -0.00008  -0.00008   2.62663
    R3        2.05116   0.00002   0.00000   0.00006   0.00006   2.05122
    R4        2.62671  -0.00004   0.00000  -0.00008  -0.00008   2.62663
    R5        2.05116   0.00002   0.00000   0.00006   0.00006   2.05122
    R6        2.62671  -0.00004   0.00000  -0.00008  -0.00008   2.62663
    R7        2.05116   0.00002   0.00000   0.00006   0.00006   2.05122
    R8        2.62671  -0.00004   0.00000  -0.00008  -0.00008   2.62663
    R9        2.05116   0.00002   0.00000   0.00006   0.00006   2.05122
   R10        2.62671  -0.00004   0.00000  -0.00008  -0.00008   2.62663
   R11        2.05116   0.00002   0.00000   0.00006   0.00006   2.05122
   R12        2.05116   0.00002   0.00000   0.00006   0.00006   2.05122
    A1        2.09440   0.00000   0.00000   0.00000   0.00000   2.09440
    A2        2.09440   0.00000   0.00000   0.00000   0.00000   2.09440
    A3        2.09440   0.00000   0.00000   0.00000   0.00000   2.09440
    A4        2.09440   0.00000   0.00000   0.00000   0.00000   2.09440
    A5        2.09440   0.00000   0.00000   0.00000   0.00000   2.09440
    A6        2.09440   0.00000   0.00000   0.00000   0.00000   2.09440
    A7        2.09440   0.00000   0.00000   0.00000   0.00000   2.09440
    A8        2.09440   0.00000   0.00000   0.00000   0.00000   2.09440
    A9        2.09440   0.00000   0.00000   0.00000   0.00000   2.09440
   A10        2.09440   0.00000   0.00000   0.00000   0.00000   2.09440
   A11        2.09440   0.00000   0.00000   0.00000   0.00000   2.09440
   A12        2.09440   0.00000   0.00000   0.00000   0.00000   2.09440
   A13        2.09440   0.00000   0.00000   0.00000   0.00000   2.09440
   A14        2.09440   0.00000   0.00000   0.00000   0.00000   2.09440
   A15        2.09440   0.00000   0.00000   0.00000   0.00000   2.09440
   A16        2.09440   0.00000   0.00000   0.00000   0.00000   2.09440
   A17        2.09440   0.00000   0.00000   0.00000   0.00000   2.09440
   A18        2.09440   0.00000   0.00000   0.00000   0.00000   2.09440
    D1        0.00000   0.00000   0.00000   0.00000   0.00000   0.00000
    D2        3.14159   0.00000   0.00000   0.00000   0.00000   3.14159
    D3        3.14159   0.00000   0.00000   0.00000   0.00000   3.14159
    D4        0.00000   0.00000   0.00000   0.00000   0.00000   0.00000
    D5        0.00000   0.00000   0.00000   0.00000   0.00000   0.00000
    D6        3.14159   0.00000   0.00000   0.00000   0.00000   3.14159
    D7        3.14159   0.00000   0.00000   0.00000   0.00000   3.14159
    D8        0.00000   0.00000   0.00000   0.00000   0.00000   0.00000
    D9        0.00000   0.00000   0.00000   0.00000   0.00000   0.00000
   D10        3.14159   0.00000   0.00000   0.00000   0.00000   3.14159
   D11        3.14159   0.00000   0.00000   0.00000   0.00000   3.14159
   D12        0.00000   0.00000   0.00000   0.00000   0.00000   0.00000
   D13        0.00000   0.00000   0.00000   0.00000   0.00000   0.00000
   D14        3.14159   0.00000   0.00000   0.00000   0.00000   3.14159
   D15        3.14159   0.00000   0.00000   0.00000   0.00000   3.14159
   D16        0.00000   0.00000   0.00000   0.00000   0.00000   0.00000
   D17        0.00000   0.00000   0.00000   0.00000   0.00000   0.00000
   D18        3.14159   0.00000   0.00000   0.00000   0.00000   3.14159
   D19        3.14159   0.00000   0.00000   0.00000   0.00000   3.14159
   D20        0.00000   0.00000   0.00000   0.00000   0.00000   0.00000
   D21        0.00000   0.00000   0.00000   0.00000   0.00000   0.00000
   D22        3.14159   0.00000   0.00000   0.00000   0.00000   3.14159
   D23        3.14159   0.00000   0.00000   0.00000   0.00000   3.14159
   D24        0.00000   0.00000   0.00000   0.00000   0.00000   0.00000
         Item               Value     Threshold  Converged?
 Maximum Force            0.000040     0.000450     YES
 RMS     Force            0.000015     0.000300     YES
 Maximum Displacement     0.000078     0.001800     YES
 RMS     Displacement     0.000027     0.001200     YES
 Predicted change in Energy=-1.304585D-08
 Optimization completed.
    -- Stationary point found.
                           ----------------------------
                           !   Optimized Parameters   !
                           ! (Angstroms and Degrees)  !
 --------------------------                            --------------------------
 ! Name  Definition              Value          Derivative Info.                !
 --------------------------------------------------------------------------------
 ! R1    R(1,2)                  1.39           -DE/DX =    0.0                 !
 ! R2    R(1,6)                  1.39           -DE/DX =    0.0                 !
 ! R3    R(1,7)                  1.0854         -DE/DX =    0.0                 !
 ! R4    R(2,3)                  1.39           -DE/DX =    0.0                 !
 ! R5    R(2,8)                  1.0854         -DE/DX =    0.0                 !
 ! R6    R(3,4)                  1.39           -DE/DX =    0.0                 !
 ! R7    R(3,9)                  1.0854         -DE/DX =    0.0                 !
 ! R8    R(4,5)                  1.39           -DE/DX =    0.0                 !
 ! R9    R(4,10)                 1.0854         -DE/DX =    0.0                 !
 ! R10   R(5,6)                  1.39           -DE/DX =    0.0                 !
 ! R11   R(5,11)                 1.0854         -DE/DX =    0.0                 !
 ! R12   R(6,12)                 1.0854         -DE/DX =    0.0                 !
 ! A1    A(2,1,6)              120.0            -DE/DX =    0.0                 !
 ! A2    A(2,1,7)              120.0            -DE/DX =    0.0                 !
 ! A3    A(6,1,7)              120.0            -DE/DX =    0.0                 !
 ! A4    A(1,2,3)              120.0            -DE/DX =    0.0                 !
 ! A5    A(1,2,8)              120.0            -DE/DX =    0.0                 !
 ! A6    A(3,2,8)              120.0            -DE/DX =    0.0                 !
 ! A7    A(2,3,4)              120.0            -DE/DX =    0.0                 !
 ! A8    A(2,3,9)              120.0            -DE/DX =    0.0                 !
 ! A9    A(4,3,9)              120.0            -DE/DX =    0.0                 !
 ! A10   A(3,4,5)              120.0            -DE/DX =    0.0                 !
 ! A11   A(3,4,10)             120.0            -DE/DX =    0.0                 !
 ! A12   A(5,4,10)             120.0            -DE/DX =    0.0                 !
 ! A13   A(4,5,6)              120.0            -DE/DX =    0.0                 !
 ! A14   A(4,5,11)             120.0            -DE/DX =    0.0                 !
 ! A15   A(6,5,11)             120.0            -DE/DX =    0.0                 !
 ! A16   A(1,6,5)              120.0            -DE/DX =    0.0                 !
 ! A17   A(1,6,12)             120.0            -DE/DX =    0.0                 !
 ! A18   A(5,6,12)             120.0            -DE/DX =    0.0                 !
 ! D1    D(6,1,2,3)              0.0            -DE/DX =    0.0                 !
 ! D2    D(6,1,2,8)            180.0            -DE/DX =    0.0                 !
 ! D3    D(7,1,2,3)            180.0            -DE/DX =    0.0                 !
 ! D4    D(7,1,2,8)              0.0            -DE/DX =    0.0                 !
 ! D5    D(2,1,6,5)              0.0            -DE/DX =    0.0                 !
 ! D6    D(2,1,6,12)           180.0            -DE/DX =    0.0                 !
 ! D7    D(7,1,6,5)            180.0            -DE/DX =    0.0                 !
 ! D8    D(7,1,6,12)             0.0            -DE/DX =    0.0                 !
 ! D9    D(1,2,3,4)              0.0            -DE/DX =    0.0                 !
 ! D10   D(1,2,3,9)            180.0            -DE/DX =    0.0                 !
 ! D11   D(8,2,3,4)            180.0            -DE/DX =    0.0                 !
 ! D12   D(8,2,3,9)              0.0            -DE/DX =    0.0                 !
 ! D13   D(2,3,4,5)              0.0            -DE/DX =    0.0                 !
 ! D14   D(2,3,4,10)           180.0            -DE/DX =    0.0                 !
 ! D15   D(9,3,4,5)            180.0            -DE/DX =    0.0                 !
 ! D16   D(9,3,4,10)             0.0            -DE/DX =    0.0                 !
 ! D17   D(3,4,5,6)              0.0            -DE/DX =    0.0                 !
 ! D18   D(3,4,5,11)           180.0            -DE/DX =    0.0                 !
 ! D19   D(10,4,5,6)           180.0            -DE/DX =    0.0                 !
 ! D20   D(10,4,5,11)            0.0            -DE/DX =    0.0                 !
 ! D21   D(4,5,6,1)              0.0            -DE/DX =    0.0                 !
 ! D22   D(4,5,6,12)           180.0            -DE/DX =    0.0                 !
 ! D23   D(11,5,6,1)           180.0            -DE/DX =    0.0                 !
 ! D24   D(11,5,6,12)            0.0            -DE/DX =    0.0                 !
 --------------------------------------------------------------------------------
 GradGradGradGradGradGradGradGradGradGradGradGradGradGradGradGradGradGrad

 1|1|UNPC-DESKTOP-KC5UJLK|Freq|RAPFD|6-311+G(2d,p)|C6H6|23122|12-Feb-20
 22|0||#N Geom=AllCheck Guess=TCheck SCRF=Check GenChk RAPFD/6-311+G(2d
 ,p) Freq||opt freq(GC)||0,1|C,0.0000000027,1.389993541,0.|C,-1.2037697
 163,0.6949967728,0.|C,-1.203769719,-0.6949967682,0.|C,-0.0000000027,-1
 .389993541,0.|C,1.2037697163,-0.6949967728,0.|C,1.203769719,0.69499676
 82,0.|H,0.0000000048,2.4754232733,0.|H,-2.1437794374,1.2377116408,0.|H
 ,-2.1437794422,-1.2377116325,0.|H,-0.0000000048,-2.4754232733,0.|H,2.1
 437794374,-1.2377116408,0.|H,2.1437794422,1.2377116325,0.||Version=IA3
 2W-G09RevD.01|State=1-A1G|HF=-232.110011|RMSD=9.293e-010|RMSF=2.610e-0
 05|ZeroPoint=0.1005002|Thermal=0.1049023|Dipole=0.,0.,0.|DipoleDeriv=-
 0.0604184,0.,0.,0.,0.0899151,0.,0.,0.,-0.1368173,0.0523746,-0.0650684,
 0.,-0.0651032,-0.0227918,0.,0.,0.,-0.1368166,0.0523746,0.0650684,0.,0.
 0651032,-0.0227918,0.,0.,0.,-0.1368166,-0.0604184,0.,0.,0.,0.0899151,0
 .,0.,0.,-0.1368173,0.0523746,-0.0650684,0.,-0.0651032,-0.0227918,0.,0.
 ,0.,-0.1368166,0.0523746,0.0650684,0.,0.0651032,-0.0227918,0.,0.,0.,-0
 .1368166,0.0677014,0.,0.,0.,-0.0973105,0.,0.,0.,0.1368136,-0.0560583,0
 .07145,0.,0.0714531,0.0264473,0.,0.,0.,0.1368157,-0.0560583,-0.07145,0
 .,-0.0714531,0.0264473,0.,0.,0.,0.1368157,0.0677014,0.,0.,0.,-0.097310
 5,0.,0.,0.,0.1368136,-0.0560583,0.07145,0.,0.0714531,0.0264473,0.,0.,0
 .,0.1368157,-0.0560583,-0.07145,0.,-0.0714531,0.0264473,0.,0.,0.,0.136
 8157|Polar=78.6144684,0.,78.6161627,0.,0.,42.1782538|PG=D06H [3C2'(H1C
 1.C1H1)]|NImag=0||0.66857059,0.,0.74414460,0.,0.,0.13346698,-0.2867754
 5,-0.12382493,0.,0.72525110,-0.05766445,-0.18199251,0.,-0.03272450,0.6
 8746410,0.,0.,-0.06216489,0.,0.,0.13346698,0.03503932,-0.02978588,0.,-
 0.12960104,-0.03308024,0.,0.72525110,-0.07804762,-0.02721838,0.,0.0330
 8024,-0.33916692,0.,0.03272450,0.68746409,0.,0.,0.00686721,0.,0.,-0.06
 216489,0.,0.,0.13346698,-0.07047743,0.,0.,0.03503932,0.07804762,0.,-0.
 28677545,0.05766445,0.,0.66857059,0.,-0.00221659,0.,0.02978588,-0.0272
 1838,0.,0.12382493,-0.18199251,0.,0.,0.74414460,0.,0.,-0.00637965,0.,0
 .,0.00686721,0.,0.,-0.06216489,0.,0.,0.13346698,0.03503932,0.02978588,
 0.,-0.01928180,-0.02955781,0.,-0.05834723,0.02413087,0.,-0.28677545,-0
 .12382493,0.,0.72525110,0.07804762,-0.02721838,0.,-0.02955781,-0.05341
 222,0.,-0.02413087,0.06616817,0.,-0.05766445,-0.18199251,0.,-0.0327245
 0,0.68746410,0.,0.,0.00686721,0.,0.,-0.00637965,0.,0.,0.00686721,0.,0.
 ,-0.06216489,0.,0.,0.13346698,-0.28677545,0.12382493,0.,-0.05834723,-0
 .02413087,0.,-0.01928180,0.02955781,0.,0.03503932,-0.02978588,0.,-0.12
 960104,-0.03308024,0.,0.72525110,0.05766445,-0.18199251,0.,0.02413087,
 0.06616817,0.,0.02955781,-0.05341222,0.,-0.07804762,-0.02721838,0.,0.0
 3308024,-0.33916692,0.,0.03272450,0.68746409,0.,0.,-0.06216489,0.,0.,0
 .00686721,0.,0.,-0.00637965,0.,0.,0.00686721,0.,0.,-0.06216489,0.,0.,0
 .13346698,-0.05946591,0.,0.,0.00485325,-0.02845112,0.,-0.00456310,-0.0
 0249960,0.,-0.00141366,0.,0.,-0.00456310,0.00249960,0.,0.00485325,0.02
 845112,0.,0.05863073,0.,-0.33658868,0.,0.00262444,-0.01172601,0.,-0.00
 327305,0.00071530,0.,0.,0.00078274,0.,0.00327305,0.00071530,0.,-0.0026
 2444,-0.01172601,0.,0.,0.35771750,0.,0.,-0.03628910,0.,0.,0.00297368,0
 .,0.,0.00739331,0.,0.,-0.00093674,0.,0.,0.00739331,0.,0.,0.00297368,0.
 ,0.,0.02515553,-0.01876448,0.01626014,0.,-0.26730799,0.11999768,0.,0.0
 0360209,-0.00190208,0.,0.00189533,-0.00045573,0.,0.00023364,-0.0009510
 7,0.,-0.00310393,-0.00411550,0.,0.00074308,-0.00042008,0.,0.28294581,-
 0.01481542,0.01189172,0.,0.11999768,-0.12874661,0.,0.02917348,-0.01047
 484,0.,-0.00122917,-0.00574313,0.,-0.00095107,-0.00086456,0.,-0.003342
 05,-0.00074387,0.,0.00038094,0.00076568,0.,-0.12950837,0.13340242,0.,0
 .,0.00297368,0.,0.,-0.03628910,0.,0.,0.00297368,0.,0.,0.00739331,0.,0.
 ,-0.00093674,0.,0.,0.00739331,0.,0.,-0.00389254,0.,0.,0.02515553,0.001
 89533,0.00045573,0.,0.00360209,0.00190208,0.,-0.26730799,-0.11999768,0
 .,-0.01876448,-0.01626014,0.,-0.00310393,0.00411550,0.,0.00023364,0.00
 095107,0.,0.00002831,0.00020928,0.,0.00077697,-0.00040051,0.,0.2829458
 1,0.00122917,-0.00574313,0.,-0.02917348,-0.01047484,0.,-0.11999768,-0.
 12874661,0.,0.01481542,0.01189172,0.,0.00334205,-0.00074387,0.,0.00095
 107,-0.00086456,0.,-0.00142703,-0.00067476,0.,0.00040051,0.00073179,0.
 ,0.12950837,0.13340242,0.,0.,0.00739331,0.,0.,0.00297368,0.,0.,-0.0362
 8910,0.,0.,0.00297368,0.,0.,0.00739331,0.,0.,-0.00093674,0.,0.,0.00018
 745,0.,0.,-0.00389254,0.,0.,0.02515553,-0.00141366,0.,0.,-0.00456310,0
 .00249960,0.,0.00485325,0.02845112,0.,-0.05946591,0.,0.,0.00485325,-0.
 02845112,0.,-0.00456310,-0.00249960,0.,0.00012566,0.,0.,0.00002831,0.0
 0142703,0.,0.00074308,-0.00038094,0.,0.05863073,0.,0.00078274,0.,0.003
 27305,0.00071530,0.,-0.00262444,-0.01172601,0.,0.,-0.33658868,0.,0.002
 62444,-0.01172601,0.,-0.00327305,0.00071530,0.,0.,-0.00007238,0.,-0.00
 020928,-0.00067476,0.,0.00042008,0.00076568,0.,0.,0.35771750,0.,0.,-0.
 00093674,0.,0.,0.00739331,0.,0.,0.00297368,0.,0.,-0.03628910,0.,0.,0.0
 0297368,0.,0.,0.00739331,0.,0.,-0.00125361,0.,0.,0.00018745,0.,0.,-0.0
 0389254,0.,0.,0.02515553,0.00189533,-0.00045573,0.,0.00023364,-0.00095
 107,0.,-0.00310393,-0.00411550,0.,-0.01876448,0.01626014,0.,-0.2673079
 9,0.11999768,0.,0.00360209,-0.00190208,0.,0.00002831,-0.00020928,0.,-0
 .00002287,0.00008575,0.,-0.00102629,0.00081815,0.,0.00074308,-0.000420
 08,0.,0.28294581,-0.00122917,-0.00574313,0.,-0.00095107,-0.00086456,0.
 ,-0.00334205,-0.00074387,0.,-0.01481542,0.01189172,0.,0.11999768,-0.12
 874661,0.,0.02917348,-0.01047484,0.,0.00142703,-0.00067476,0.,0.000085
 75,0.00007615,0.,-0.00081815,0.00037984,0.,0.00038094,0.00076568,0.,-0
 .12950837,0.13340242,0.,0.,0.00739331,0.,0.,-0.00093674,0.,0.,0.007393
 31,0.,0.,0.00297368,0.,0.,-0.03628910,0.,0.,0.00297368,0.,0.,0.0001874
 5,0.,0.,-0.00125361,0.,0.,0.00018745,0.,0.,-0.00389254,0.,0.,0.0251555
 3,-0.01876448,-0.01626014,0.,-0.00310393,0.00411550,0.,0.00023364,0.00
 095107,0.,0.00189533,0.00045573,0.,0.00360209,0.00190208,0.,-0.2673079
 9,-0.11999768,0.,0.00074308,0.00042008,0.,-0.00102629,-0.00081815,0.,-
 0.00002287,-0.00008575,0.,0.00002831,0.00020928,0.,0.00077697,-0.00040
 051,0.,0.28294581,0.01481542,0.01189172,0.,0.00334205,-0.00074387,0.,0
 .00095107,-0.00086456,0.,0.00122917,-0.00574313,0.,-0.02917348,-0.0104
 7484,0.,-0.11999768,-0.12874661,0.,-0.00038094,0.00076568,0.,0.0008181
 5,0.00037984,0.,-0.00008575,0.00007615,0.,-0.00142703,-0.00067476,0.,0
 .00040051,0.00073179,0.,0.12950837,0.13340242,0.,0.,0.00297368,0.,0.,0
 .00739331,0.,0.,-0.00093674,0.,0.,0.00739331,0.,0.,0.00297368,0.,0.,-0
 .03628910,0.,0.,-0.00389254,0.,0.,0.00018745,0.,0.,-0.00125361,0.,0.,0
 .00018745,0.,0.,-0.00389254,0.,0.,0.02515553||0.,0.00006053,0.,-0.0000
 5242,0.00003027,0.,-0.00005242,-0.00003027,0.,0.,-0.00006053,0.,0.0000
 5242,-0.00003027,0.,0.00005242,0.00003027,0.,0.,-0.00002054,0.,0.00001
 779,-0.00001027,0.,0.00001779,0.00001027,0.,0.,0.00002054,0.,-0.000017
 79,0.00001027,0.,-0.00001779,-0.00001027,0.|||@


 ACTORS ARE SO FORTUNATE.  THEY CAN CHOOSE WHETHER
 THEY WILL APPEAR IN A TRAGEDY OR IN COMEDY,
 WHETHER THEY WILL SUFFER OF MAKE MERRY,
 LAUGH OR SHED TEARS.  BUT IN REAL LIFE IT IS DIFFERENT.
 MOST MEN AND WOMEN ARE FORCED TO PERFORM
 PARTS FOR WHICH THEY HAVE NO QUALIFICATIONS.
 THE WORLD IS A STAGE, BUT THE PLAY IS BADLY CAST.

                                   -- OSCAR WILDE
 Job cpu time:       0 days  0 hours  7 minutes 29.0 seconds.
 File lengths (MBytes):  RWF=     25 Int=      0 D2E=      0 Chk=      4 Scr=      1
 Normal termination of Gaussian 09 at Sat Feb 12 20:23:26 2022.
