 Entering Link 1 = C:\G09W\l1.exe PID=      9224.
  
 Copyright (c) 1988,1990,1992,1993,1995,1998,2003,2009,2013,
            Gaussian, Inc.  All Rights Reserved.
  
 This is part of the Gaussian(R) 09 program.  It is based on
 the Gaussian(R) 03 system (copyright 2003, Gaussian, Inc.),
 the Gaussian(R) 98 system (copyright 1998, Gaussian, Inc.),
 the Gaussian(R) 94 system (copyright 1995, Gaussian, Inc.),
 the Gaussian 92(TM) system (copyright 1992, Gaussian, Inc.),
 the Gaussian 90(TM) system (copyright 1990, Gaussian, Inc.),
 the Gaussian 88(TM) system (copyright 1988, Gaussian, Inc.),
 the Gaussian 86(TM) system (copyright 1986, Carnegie Mellon
 University), and the Gaussian 82(TM) system (copyright 1983,
 Carnegie Mellon University). Gaussian is a federally registered
 trademark of Gaussian, Inc.
  
 This software contains proprietary and confidential information,
 including trade secrets, belonging to Gaussian, Inc.
  
 This software is provided under written license and may be
 used, copied, transmitted, or stored only in accord with that
 written license.
  
 The following legend is applicable only to US Government
 contracts under FAR:
  
                    RESTRICTED RIGHTS LEGEND
  
 Use, reproduction and disclosure by the US Government is
 subject to restrictions as set forth in subparagraphs (a)
 and (c) of the Commercial Computer Software - Restricted
 Rights clause in FAR 52.227-19.
  
 Gaussian, Inc.
 340 Quinnipiac St., Bldg. 40, Wallingford CT 06492
  
  
 ---------------------------------------------------------------
 Warning -- This program may not be used in any manner that
 competes with the business of Gaussian, Inc. or will provide
 assistance to any competitor of Gaussian, Inc.  The licensee
 of this program is prohibited from giving any competitor of
 Gaussian, Inc. access to this program.  By using this program,
 the user acknowledges that Gaussian, Inc. is engaged in the
 business of creating and licensing software in the field of
 computational chemistry and represents and warrants to the
 licensee that it is not a competitor of Gaussian, Inc. and that
 it will not use this program in any manner prohibited above.
 ---------------------------------------------------------------
  

 Cite this work as:
 Gaussian 09, Revision D.01,
 M. J. Frisch, G. W. Trucks, H. B. Schlegel, G. E. Scuseria, 
 M. A. Robb, J. R. Cheeseman, G. Scalmani, V. Barone, B. Mennucci, 
 G. A. Petersson, H. Nakatsuji, M. Caricato, X. Li, H. P. Hratchian, 
 A. F. Izmaylov, J. Bloino, G. Zheng, J. L. Sonnenberg, M. Hada, 
 M. Ehara, K. Toyota, R. Fukuda, J. Hasegawa, M. Ishida, T. Nakajima, 
 Y. Honda, O. Kitao, H. Nakai, T. Vreven, J. A. Montgomery, Jr., 
 J. E. Peralta, F. Ogliaro, M. Bearpark, J. J. Heyd, E. Brothers, 
 K. N. Kudin, V. N. Staroverov, T. Keith, R. Kobayashi, J. Normand, 
 K. Raghavachari, A. Rendell, J. C. Burant, S. S. Iyengar, J. Tomasi, 
 M. Cossi, N. Rega, J. M. Millam, M. Klene, J. E. Knox, J. B. Cross, 
 V. Bakken, C. Adamo, J. Jaramillo, R. Gomperts, R. E. Stratmann, 
 O. Yazyev, A. J. Austin, R. Cammi, C. Pomelli, J. W. Ochterski, 
 R. L. Martin, K. Morokuma, V. G. Zakrzewski, G. A. Voth, 
 P. Salvador, J. J. Dannenberg, S. Dapprich, A. D. Daniels, 
 O. Farkas, J. B. Foresman, J. V. Ortiz, J. Cioslowski, 
 and D. J. Fox, Gaussian, Inc., Wallingford CT, 2013.
 
 ******************************************
 Gaussian 09:  IA32W-G09RevD.01 24-Apr-2013
                13-Feb-2022 
 ******************************************
 %chk=D:\mindmap\gaussian\calculate\opt_freq\C6H5COH\C6H5OH.chk
 -------------------------------------------
 # opt freq apfd/6-311+g(2d,p) int=ultrafine
 -------------------------------------------
 1/14=-1,18=20,19=15,26=4,38=1/1,3;
 2/9=110,12=2,17=6,18=5,40=1/2;
 3/5=4,6=6,7=112,11=2,16=1,25=1,30=1,71=1,74=-44,75=-5/1,2,3;
 4//1;
 5/5=2,38=5/2;
 6/7=2,8=2,9=2,10=2,28=1/1;
 7//1,2,3,16;
 1/14=-1,18=20,19=15,26=4/3(2);
 2/9=110/2;
 99//99;
 2/9=110/2;
 3/5=4,6=6,7=112,11=2,16=1,25=1,30=1,71=1,74=-44,75=-5/1,2,3;
 4/5=5,16=3,69=1/1;
 5/5=2,38=5/2;
 7//1,2,3,16;
 1/14=-1,18=20,19=15,26=4/3(-5);
 2/9=110/2;
 6/7=2,8=2,9=2,10=2,19=2,28=1/1;
 99/9=1/99;
 ------------
 opt freq(GC)
 ------------
 Symbolic Z-matrix:
 Charge =  0 Multiplicity = 1
 C                     0.4024    1.29539   0. 
 C                     1.76684   1.03011   0. 
 C                     2.21932  -0.28417   0. 
 C                     1.30736  -1.33317   0. 
 C                    -0.05709  -1.06789   0. 
 C                    -0.50957   0.24639   0. 
 H                     0.04906   2.3217    0. 
 H                     2.47898   1.84927   0. 
 H                     3.2848   -0.49133   0. 
 H                     1.66069  -2.35948   0. 
 H                    -0.76923  -1.88705   0. 
 C                    -2.02126   0.5403    0. 
 O                    -2.87309  -0.44345   0. 
 H                    -2.36757   1.55271   0. 
 

 GradGradGradGradGradGradGradGradGradGradGradGradGradGradGradGradGradGrad
 Berny optimization.
 Initialization pass.
                           ----------------------------
                           !    Initial Parameters    !
                           ! (Angstroms and Degrees)  !
 --------------------------                            --------------------------
 ! Name  Definition              Value          Derivative Info.                !
 --------------------------------------------------------------------------------
 ! R1    R(1,2)                  1.39           estimate D2E/DX2                !
 ! R2    R(1,6)                  1.39           estimate D2E/DX2                !
 ! R3    R(1,7)                  1.0854         estimate D2E/DX2                !
 ! R4    R(2,3)                  1.39           estimate D2E/DX2                !
 ! R5    R(2,8)                  1.0854         estimate D2E/DX2                !
 ! R6    R(3,4)                  1.39           estimate D2E/DX2                !
 ! R7    R(3,9)                  1.0854         estimate D2E/DX2                !
 ! R8    R(4,5)                  1.39           estimate D2E/DX2                !
 ! R9    R(4,10)                 1.0854         estimate D2E/DX2                !
 ! R10   R(5,6)                  1.39           estimate D2E/DX2                !
 ! R11   R(5,11)                 1.0854         estimate D2E/DX2                !
 ! R12   R(6,12)                 1.54           estimate D2E/DX2                !
 ! R13   R(12,13)                1.3013         estimate D2E/DX2                !
 ! R14   R(12,14)                1.07           estimate D2E/DX2                !
 ! A1    A(2,1,6)              120.0            estimate D2E/DX2                !
 ! A2    A(2,1,7)              120.0            estimate D2E/DX2                !
 ! A3    A(6,1,7)              120.0            estimate D2E/DX2                !
 ! A4    A(1,2,3)              120.0            estimate D2E/DX2                !
 ! A5    A(1,2,8)              120.0            estimate D2E/DX2                !
 ! A6    A(3,2,8)              120.0            estimate D2E/DX2                !
 ! A7    A(2,3,4)              120.0            estimate D2E/DX2                !
 ! A8    A(2,3,9)              120.0            estimate D2E/DX2                !
 ! A9    A(4,3,9)              120.0            estimate D2E/DX2                !
 ! A10   A(3,4,5)              120.0            estimate D2E/DX2                !
 ! A11   A(3,4,10)             120.0            estimate D2E/DX2                !
 ! A12   A(5,4,10)             120.0            estimate D2E/DX2                !
 ! A13   A(4,5,6)              120.0            estimate D2E/DX2                !
 ! A14   A(4,5,11)             120.0            estimate D2E/DX2                !
 ! A15   A(6,5,11)             120.0            estimate D2E/DX2                !
 ! A16   A(1,6,5)              120.0            estimate D2E/DX2                !
 ! A17   A(1,6,12)             120.0            estimate D2E/DX2                !
 ! A18   A(5,6,12)             120.0            estimate D2E/DX2                !
 ! A19   A(6,12,13)            119.8865         estimate D2E/DX2                !
 ! A20   A(6,12,14)            119.8865         estimate D2E/DX2                !
 ! A21   A(13,12,14)           120.2269         estimate D2E/DX2                !
 ! D1    D(6,1,2,3)              0.0            estimate D2E/DX2                !
 ! D2    D(6,1,2,8)            180.0            estimate D2E/DX2                !
 ! D3    D(7,1,2,3)            180.0            estimate D2E/DX2                !
 ! D4    D(7,1,2,8)              0.0            estimate D2E/DX2                !
 ! D5    D(2,1,6,5)              0.0            estimate D2E/DX2                !
 ! D6    D(2,1,6,12)           180.0            estimate D2E/DX2                !
 ! D7    D(7,1,6,5)            180.0            estimate D2E/DX2                !
 ! D8    D(7,1,6,12)             0.0            estimate D2E/DX2                !
 ! D9    D(1,2,3,4)              0.0            estimate D2E/DX2                !
 ! D10   D(1,2,3,9)            180.0            estimate D2E/DX2                !
 ! D11   D(8,2,3,4)            180.0            estimate D2E/DX2                !
 ! D12   D(8,2,3,9)              0.0            estimate D2E/DX2                !
 ! D13   D(2,3,4,5)              0.0            estimate D2E/DX2                !
 ! D14   D(2,3,4,10)           180.0            estimate D2E/DX2                !
 ! D15   D(9,3,4,5)            180.0            estimate D2E/DX2                !
 ! D16   D(9,3,4,10)             0.0            estimate D2E/DX2                !
 ! D17   D(3,4,5,6)              0.0            estimate D2E/DX2                !
 ! D18   D(3,4,5,11)           180.0            estimate D2E/DX2                !
 ! D19   D(10,4,5,6)           180.0            estimate D2E/DX2                !
 ! D20   D(10,4,5,11)            0.0            estimate D2E/DX2                !
 ! D21   D(4,5,6,1)              0.0            estimate D2E/DX2                !
 ! D22   D(4,5,6,12)           180.0            estimate D2E/DX2                !
 ! D23   D(11,5,6,1)           180.0            estimate D2E/DX2                !
 ! D24   D(11,5,6,12)            0.0            estimate D2E/DX2                !
 ! D25   D(1,6,12,13)          180.0            estimate D2E/DX2                !
 ! D26   D(1,6,12,14)            0.0            estimate D2E/DX2                !
 ! D27   D(5,6,12,13)            0.0            estimate D2E/DX2                !
 ! D28   D(5,6,12,14)          180.0            estimate D2E/DX2                !
 --------------------------------------------------------------------------------
 Trust Radius=3.00D-01 FncErr=1.00D-07 GrdErr=1.00D-06
 Number of steps in this run=     73 maximum allowed number of steps=    100.
 GradGradGradGradGradGradGradGradGradGradGradGradGradGradGradGradGradGrad

                          Input orientation:                          
 ---------------------------------------------------------------------
 Center     Atomic      Atomic             Coordinates (Angstroms)
 Number     Number       Type             X           Y           Z
 ---------------------------------------------------------------------
      1          6           0        0.402395    1.295395    0.000000
      2          6           0        1.766839    1.030112    0.000000
      3          6           0        2.219320   -0.284172    0.000000
      4          6           0        1.307357   -1.333174    0.000000
      5          6           0       -0.057087   -1.067892    0.000000
      6          6           0       -0.509568    0.246393    0.000000
      7          1           0        0.049058    2.321704    0.000000
      8          1           0        2.478981    1.849266    0.000000
      9          1           0        3.284798   -0.491328    0.000000
     10          1           0        1.660694   -2.359484    0.000000
     11          1           0       -0.769229   -1.887045    0.000000
     12          6           0       -2.021261    0.540304    0.000000
     13          8           0       -2.873087   -0.443452    0.000000
     14          1           0       -2.367571    1.552712    0.000000
 ---------------------------------------------------------------------
                    Distance matrix (angstroms):
                    1          2          3          4          5
     1  C    0.000000
     2  C    1.389994   0.000000
     3  C    2.407540   1.389994   0.000000
     4  C    2.779987   2.407540   1.389994   0.000000
     5  C    2.407540   2.779987   2.407540   1.389994   0.000000
     6  C    1.389994   2.407540   2.779987   2.407540   1.389994
     7  H    1.085430   2.149181   3.391257   3.865417   3.391257
     8  H    2.149181   1.085430   2.149181   3.391257   3.865417
     9  H    3.391257   2.149181   1.085430   2.149181   3.391257
    10  H    3.865417   3.391257   2.149181   1.085430   2.149181
    11  H    3.391257   3.865417   3.391257   2.149181   1.085430
    12  C    2.538557   3.819636   4.319987   3.819636   2.538557
    13  O    3.708419   4.868296   5.094897   4.274075   2.884403
    14  H    2.781892   4.167308   4.941023   4.672626   3.493694
                    6          7          8          9         10
     6  C    0.000000
     7  H    2.149181   0.000000
     8  H    3.391257   2.475423   0.000000
     9  H    3.865417   4.287559   2.475423   0.000000
    10  H    3.391257   4.950847   4.287559   2.475423   0.000000
    11  H    2.149181   4.287559   4.950847   4.287559   2.475423
    12  C    1.540000   2.731228   4.686743   5.405417   4.686743
    13  O    2.462134   4.023061   5.822472   6.158071   4.922026
    14  H    2.271265   2.536030   4.855616   6.010606   5.615353
                   11         12         13         14
    11  H    0.000000
    12  C    2.731228   0.000000
    13  O    2.551506   1.301300   0.000000
    14  H    3.792971   1.070000   2.059178   0.000000
 Stoichiometry    C7H6O
 Framework group  CS[SG(C7H6O)]
 Deg. of freedom    25
 Full point group                 CS      NOp   2
 Largest Abelian subgroup         CS      NOp   2
 Largest concise Abelian subgroup C1      NOp   1
                         Standard orientation:                         
 ---------------------------------------------------------------------
 Center     Atomic      Atomic             Coordinates (Angstroms)
 Number     Number       Type             X           Y           Z
 ---------------------------------------------------------------------
      1          6           0       -1.348382   -0.147771    0.000000
      2          6           0       -1.348382   -1.537764    0.000000
      3          6           0       -0.144612   -2.232761    0.000000
      4          6           0        1.059158   -1.537764    0.000000
      5          6           0        1.059158   -0.147771    0.000000
      6          6           0       -0.144612    0.547226    0.000000
      7          1           0       -2.288391    0.394944    0.000000
      8          1           0       -2.288391   -2.080479    0.000000
      9          1           0       -0.144612   -3.318191    0.000000
     10          1           0        1.999168   -2.080479    0.000000
     11          1           0        1.999168    0.394944    0.000000
     12          6           0       -0.144612    2.087226    0.000000
     13          8           0        0.983634    2.735643    0.000000
     14          1           0       -1.072317    2.620390    0.000000
 ---------------------------------------------------------------------
 Rotational constants (GHZ):      5.2136741      1.5352112      1.1859871
 Standard basis: 6-311+G(2d,p) (5D, 7F)
 There are   198 symmetry adapted cartesian basis functions of A'  symmetry.
 There are    70 symmetry adapted cartesian basis functions of A"  symmetry.
 There are   182 symmetry adapted basis functions of A'  symmetry.
 There are    70 symmetry adapted basis functions of A"  symmetry.
   252 basis functions,   384 primitive gaussians,   268 cartesian basis functions
    28 alpha electrons       28 beta electrons
       nuclear repulsion energy       318.5477714774 Hartrees.
 NAtoms=   14 NActive=   14 NUniq=   14 SFac= 1.00D+00 NAtFMM=   60 NAOKFM=F Big=F
 Integral buffers will be    262144 words long.
 Raffenetti 2 integral format.
 Two-electron integral symmetry is turned on.
 R6APFD:  NTU= -4 IXU= 1 FactS= 1.050
 Nuclear repulsion after empirical dispersion term =      318.5414984789 Hartrees.
 One-electron integrals computed using PRISM.
 NBasis=   252 RedAO= T EigKep=  4.54D-06  NBF=   182    70
 NBsUse=   252 1.00D-06 EigRej= -1.00D+00 NBFU=   182    70
 ExpMin= 4.38D-02 ExpMax= 8.59D+03 ExpMxC= 1.30D+03 IAcc=3 IRadAn=         5 AccDes= 0.00D+00
 Harris functional with IExCor= 3731 and IRadAn=       5 diagonalized for initial guess.
 HarFok:  IExCor= 3731 AccDes= 0.00D+00 IRadAn=         5 IDoV= 1 UseB2=F ITyADJ=14
 ICtDFT=  3500011 ScaDFX=  1.000000  1.000000  1.000000  1.000000
 FoFCou: FMM=F IPFlag=           0 FMFlag=      100000 FMFlg1=           0
         NFxFlg=           0 DoJE=T BraDBF=F KetDBF=T FulRan=T
         wScrn=  0.000000 ICntrl=     500 IOpCl=  0 I1Cent=   200000004 NGrid=           0
         NMat0=    1 NMatS0=      1 NMatT0=    0 NMatD0=    1 NMtDS0=    0 NMtDT0=    0
 Petite list used in FoFCou.
 Initial guess orbital symmetries:
       Occupied  (A') (A') (A') (A') (A') (A') (A') (A') (A') (A')
                 (A') (A') (A') (A') (A') (A') (A') (A') (A') (A')
                 (A") (A') (A') (A') (A") (A") (A") (A')
       Virtual   (A") (A") (A") (A') (A') (A') (A') (A') (A") (A')
                 (A') (A") (A') (A") (A') (A") (A") (A') (A') (A")
                 (A') (A') (A") (A') (A') (A') (A") (A') (A') (A')
                 (A') (A') (A') (A') (A') (A') (A') (A") (A') (A')
                 (A') (A') (A') (A') (A') (A') (A') (A') (A") (A')
                 (A') (A') (A') (A') (A') (A") (A") (A') (A") (A")
                 (A') (A") (A') (A") (A") (A') (A') (A') (A') (A")
                 (A') (A') (A') (A") (A") (A") (A') (A') (A') (A')
                 (A') (A") (A') (A') (A') (A') (A") (A') (A') (A')
                 (A") (A') (A') (A') (A") (A') (A") (A") (A') (A")
                 (A') (A") (A') (A') (A') (A') (A") (A') (A') (A')
                 (A') (A') (A') (A') (A") (A') (A') (A') (A") (A')
                 (A') (A") (A') (A') (A') (A") (A") (A") (A') (A")
                 (A') (A") (A') (A") (A') (A') (A') (A') (A') (A')
                 (A') (A") (A') (A') (A') (A') (A') (A") (A') (A')
                 (A") (A") (A') (A') (A") (A") (A') (A") (A') (A')
                 (A") (A") (A') (A') (A') (A") (A") (A") (A') (A')
                 (A") (A") (A') (A') (A') (A') (A") (A') (A') (A")
                 (A') (A") (A') (A") (A") (A') (A") (A') (A') (A")
                 (A') (A') (A') (A') (A') (A') (A') (A') (A') (A')
                 (A') (A') (A') (A') (A') (A') (A') (A") (A') (A')
                 (A') (A") (A') (A") (A') (A') (A') (A') (A') (A')
                 (A') (A') (A') (A')
 The electronic state of the initial guess is 1-A'.
 Requested convergence on RMS density matrix=1.00D-08 within 128 cycles.
 Requested convergence on MAX density matrix=1.00D-06.
 Requested convergence on             energy=1.00D-06.
 No special actions if energy rises.
 SCF Done:  E(RAPFD) =  -345.366600410     A.U. after   14 cycles
            NFock= 14  Conv=0.38D-08     -V/T= 2.0050

 **********************************************************************

            Population analysis using the SCF density.

 **********************************************************************

 Orbital symmetries:
       Occupied  (A') (A') (A') (A') (A') (A') (A') (A') (A') (A')
                 (A') (A') (A') (A') (A') (A') (A') (A') (A') (A')
                 (A') (A") (A') (A") (A') (A") (A") (A')
       Virtual   (A") (A") (A') (A") (A') (A') (A') (A') (A") (A')
                 (A') (A") (A') (A") (A') (A") (A') (A") (A') (A")
                 (A') (A') (A") (A') (A') (A') (A') (A") (A') (A')
                 (A') (A') (A') (A') (A') (A') (A') (A') (A') (A")
                 (A') (A') (A') (A') (A') (A') (A') (A') (A") (A')
                 (A') (A') (A') (A') (A") (A') (A") (A') (A") (A")
                 (A') (A") (A') (A") (A") (A') (A') (A') (A') (A")
                 (A') (A') (A') (A") (A") (A") (A') (A') (A') (A')
                 (A') (A') (A") (A') (A') (A') (A") (A') (A') (A')
                 (A") (A') (A') (A') (A") (A") (A') (A") (A') (A')
                 (A") (A") (A') (A') (A') (A") (A') (A') (A') (A')
                 (A') (A') (A') (A') (A") (A') (A') (A') (A") (A')
                 (A') (A") (A') (A') (A') (A") (A") (A') (A") (A")
                 (A') (A") (A') (A") (A') (A') (A') (A') (A') (A')
                 (A') (A") (A') (A') (A') (A') (A") (A') (A') (A')
                 (A') (A") (A") (A') (A") (A") (A') (A') (A") (A")
                 (A') (A") (A') (A') (A') (A") (A") (A') (A") (A")
                 (A') (A") (A') (A') (A") (A') (A') (A') (A') (A')
                 (A') (A") (A") (A") (A') (A") (A") (A') (A') (A')
                 (A") (A') (A') (A') (A') (A') (A') (A') (A') (A')
                 (A') (A') (A') (A') (A') (A') (A') (A") (A') (A')
                 (A') (A") (A') (A") (A') (A') (A') (A') (A') (A')
                 (A') (A') (A') (A')
 The electronic state is 1-A'.
 Alpha  occ. eigenvalues --  -19.17267 -10.30436 -10.23118 -10.22592 -10.22325
 Alpha  occ. eigenvalues --  -10.22047 -10.21923 -10.21858  -1.02651  -0.89875
 Alpha  occ. eigenvalues --   -0.79540  -0.78406  -0.67575  -0.64023  -0.60439
 Alpha  occ. eigenvalues --   -0.54826  -0.49898  -0.48127  -0.45905  -0.44941
 Alpha  occ. eigenvalues --   -0.43694  -0.41515  -0.38113  -0.37291  -0.37035
 Alpha  occ. eigenvalues --   -0.28537  -0.28150  -0.27619
 Alpha virt. eigenvalues --   -0.08425  -0.02939   0.00584   0.00720   0.02089
 Alpha virt. eigenvalues --    0.03273   0.04506   0.05083   0.05736   0.06541
 Alpha virt. eigenvalues --    0.07983   0.08423   0.08448   0.09332   0.11141
 Alpha virt. eigenvalues --    0.12759   0.13602   0.13857   0.14101   0.14520
 Alpha virt. eigenvalues --    0.14712   0.15288   0.16292   0.16978   0.18378
 Alpha virt. eigenvalues --    0.18780   0.19611   0.19724   0.20282   0.21069
 Alpha virt. eigenvalues --    0.21889   0.22377   0.23281   0.23607   0.23708
 Alpha virt. eigenvalues --    0.25785   0.26576   0.27000   0.28173   0.28243
 Alpha virt. eigenvalues --    0.29309   0.30883   0.31384   0.33184   0.34012
 Alpha virt. eigenvalues --    0.34880   0.40140   0.40744   0.44783   0.44987
 Alpha virt. eigenvalues --    0.47050   0.49388   0.51163   0.51370   0.52173
 Alpha virt. eigenvalues --    0.52309   0.52798   0.53643   0.53737   0.56522
 Alpha virt. eigenvalues --    0.57960   0.59756   0.60949   0.61912   0.63012
 Alpha virt. eigenvalues --    0.63408   0.64011   0.64359   0.67199   0.68126
 Alpha virt. eigenvalues --    0.68998   0.69711   0.71869   0.72226   0.75156
 Alpha virt. eigenvalues --    0.75970   0.76241   0.77467   0.79197   0.80402
 Alpha virt. eigenvalues --    0.80864   0.81667   0.82364   0.82867   0.83664
 Alpha virt. eigenvalues --    0.87920   0.88718   0.92293   0.96093   1.01301
 Alpha virt. eigenvalues --    1.02441   1.02964   1.06438   1.07947   1.11834
 Alpha virt. eigenvalues --    1.13993   1.14371   1.16850   1.18754   1.22753
 Alpha virt. eigenvalues --    1.22980   1.24019   1.25262   1.26054   1.30833
 Alpha virt. eigenvalues --    1.30911   1.31355   1.32376   1.33378   1.36415
 Alpha virt. eigenvalues --    1.40169   1.44817   1.48473   1.50196   1.52433
 Alpha virt. eigenvalues --    1.54034   1.55589   1.57376   1.60180   1.62985
 Alpha virt. eigenvalues --    1.64580   1.66547   1.71190   1.73491   1.74804
 Alpha virt. eigenvalues --    1.77124   1.84421   1.91747   1.92097   1.95196
 Alpha virt. eigenvalues --    2.03422   2.03766   2.13035   2.16293   2.23353
 Alpha virt. eigenvalues --    2.32355   2.32904   2.35423   2.45709   2.53078
 Alpha virt. eigenvalues --    2.55427   2.64598   2.64693   2.66277   2.69697
 Alpha virt. eigenvalues --    2.72095   2.73893   2.74397   2.75568   2.76667
 Alpha virt. eigenvalues --    2.83658   2.84522   2.84823   2.85634   2.88728
 Alpha virt. eigenvalues --    2.90358   2.98228   3.05540   3.06581   3.10725
 Alpha virt. eigenvalues --    3.11194   3.13482   3.14087   3.15589   3.26199
 Alpha virt. eigenvalues --    3.26993   3.28449   3.29574   3.29693   3.31780
 Alpha virt. eigenvalues --    3.31807   3.34595   3.40006   3.41577   3.44348
 Alpha virt. eigenvalues --    3.45103   3.46137   3.48615   3.53481   3.55817
 Alpha virt. eigenvalues --    3.56389   3.57199   3.58942   3.60916   3.61769
 Alpha virt. eigenvalues --    3.61845   3.69015   3.71983   3.75325   3.76252
 Alpha virt. eigenvalues --    3.76657   3.83844   3.87590   3.88499   3.91071
 Alpha virt. eigenvalues --    3.93829   3.94694   3.96610   3.99723   4.05394
 Alpha virt. eigenvalues --    4.11777   4.21814   4.53472   4.55574   4.64379
 Alpha virt. eigenvalues --    4.83539   4.88338   5.04844   5.21745   5.31600
 Alpha virt. eigenvalues --    5.85080   6.79788   6.86316   6.99381   7.21812
 Alpha virt. eigenvalues --    7.25760  23.71162  23.94233  24.06162  24.09844
 Alpha virt. eigenvalues --   24.16988  24.18343  24.21866  50.03418
          Condensed to atoms (all electrons):
               1          2          3          4          5          6
     1  C    6.763626  -0.308416   0.240278  -0.283054  -0.061950  -0.540524
     2  C   -0.308416   5.759606   0.190760   0.557496  -0.647553   0.278944
     3  C    0.240278   0.190760   5.180767   0.067894   0.444423  -0.461861
     4  C   -0.283054   0.557496   0.067894   6.156457  -0.957825   0.192993
     5  C   -0.061950  -0.647553   0.444423  -0.957825   7.176396   0.009989
     6  C   -0.540524   0.278944  -0.461861   0.192993   0.009989   6.407888
     7  H    0.423459  -0.006134   0.023663  -0.001601  -0.005144  -0.098868
     8  H   -0.059344   0.434607  -0.067684   0.025635  -0.013575   0.022291
     9  H    0.029124  -0.071352   0.444260  -0.075281   0.019093  -0.004257
    10  H   -0.009864   0.026380  -0.081501   0.452086  -0.082804   0.037983
    11  H    0.024127  -0.008838   0.024703  -0.072868   0.436305  -0.048245
    12  C    0.308511  -0.145825   0.072996  -0.025034   0.198692  -0.543664
    13  O    0.036852   0.020768  -0.011267   0.084564  -0.201000   0.009242
    14  H    0.056653   0.039343  -0.001422   0.006952  -0.037312  -0.154775
               7          8          9         10         11         12
     1  C    0.423459  -0.059344   0.029124  -0.009864   0.024127   0.308511
     2  C   -0.006134   0.434607  -0.071352   0.026380  -0.008838  -0.145825
     3  C    0.023663  -0.067684   0.444260  -0.081501   0.024703   0.072996
     4  C   -0.001601   0.025635  -0.075281   0.452086  -0.072868  -0.025034
     5  C   -0.005144  -0.013575   0.019093  -0.082804   0.436305   0.198692
     6  C   -0.098868   0.022291  -0.004257   0.037983  -0.048245  -0.543664
     7  H    0.554091  -0.006644  -0.000291   0.000080  -0.000213  -0.001486
     8  H   -0.006644   0.558512  -0.006406  -0.000281   0.000069   0.001230
     9  H   -0.000291  -0.006406   0.557463  -0.006409  -0.000253   0.001025
    10  H    0.000080  -0.000281  -0.006409   0.555121  -0.005988   0.000948
    11  H   -0.000213   0.000069  -0.000253  -0.005988   0.506496  -0.010102
    12  C   -0.001486   0.001230   0.001025   0.000948  -0.010102   5.304314
    13  O    0.000298   0.000003   0.000000   0.000082   0.007308   0.404905
    14  H    0.006194   0.000020  -0.000003   0.000021   0.000252   0.432989
              13         14
     1  C    0.036852   0.056653
     2  C    0.020768   0.039343
     3  C   -0.011267  -0.001422
     4  C    0.084564   0.006952
     5  C   -0.201000  -0.037312
     6  C    0.009242  -0.154775
     7  H    0.000298   0.006194
     8  H    0.000003   0.000020
     9  H    0.000000  -0.000003
    10  H    0.000082   0.000021
    11  H    0.007308   0.000252
    12  C    0.404905   0.432989
    13  O    8.109169  -0.048434
    14  H   -0.048434   0.567816
 Mulliken charges:
               1
     1  C   -0.619478
     2  C   -0.119787
     3  C   -0.066010
     4  C   -0.128413
     5  C   -0.277735
     6  C    0.892863
     7  H    0.112597
     8  H    0.111567
     9  H    0.113285
    10  H    0.114147
    11  H    0.147247
    12  C    0.000502
    13  O   -0.412491
    14  H    0.131707
 Sum of Mulliken charges =   0.00000
 Mulliken charges with hydrogens summed into heavy atoms:
               1
     1  C   -0.506881
     2  C   -0.008220
     3  C    0.047275
     4  C   -0.014267
     5  C   -0.130489
     6  C    0.892863
    12  C    0.132209
    13  O   -0.412491
 Electronic spatial extent (au):  <R**2>=            948.3534
 Charge=              0.0000 electrons
 Dipole moment (field-independent basis, Debye):
    X=             -2.2222    Y=             -2.9347    Z=              0.0000  Tot=              3.6811
 Quadrupole moment (field-independent basis, Debye-Ang):
   XX=            -42.1796   YY=            -49.1776   ZZ=            -49.5255
   XY=             -6.8487   XZ=              0.0000   YZ=              0.0000
 Traceless Quadrupole moment (field-independent basis, Debye-Ang):
   XX=              4.7813   YY=             -2.2167   ZZ=             -2.5646
   XY=             -6.8487   XZ=              0.0000   YZ=              0.0000
 Octapole moment (field-independent basis, Debye-Ang**2):
  XXX=             -0.7996  YYY=            -33.4635  ZZZ=              0.0000  XYY=            -18.8869
  XXY=             -4.9548  XXZ=              0.0000  XZZ=              1.8320  YZZ=              7.0557
  YYZ=              0.0000  XYZ=              0.0000
 Hexadecapole moment (field-independent basis, Debye-Ang**3):
 XXXX=           -314.8673 YYYY=           -899.4798 ZZZZ=            -55.4498 XXXY=            -54.2570
 XXXZ=              0.0000 YYYX=           -102.1732 YYYZ=              0.0000 ZZZX=              0.0000
 ZZZY=              0.0000 XXYY=           -197.4120 XXZZ=            -73.0384 YYZZ=           -160.4874
 XXYZ=              0.0000 YYXZ=              0.0000 ZZXY=            -16.6693
 N-N= 3.185414984789D+02 E-N=-1.441467749006D+03  KE= 3.436488803991D+02
 Symmetry A'   KE= 3.336350467333D+02
 Symmetry A"   KE= 1.001383366578D+01
 R6APFD:  NTU= -4 IXU= 1 FactS= 1.050
 Calling FoFJK, ICntrl=      2127 FMM=F ISym2X=1 I1Cent= 0 IOpClX= 0 NMat=1 NMatS=1 NMatT=0.
 ***** Axes restored to original set *****
 -------------------------------------------------------------------
 Center     Atomic                   Forces (Hartrees/Bohr)
 Number     Number              X              Y              Z
 -------------------------------------------------------------------
      1        6           0.003013459    0.001680552    0.000000000
      2        6          -0.000226572    0.001712592    0.000000000
      3        6           0.000041354    0.001897516    0.000000000
      4        6          -0.004732380    0.000498902    0.000000000
      5        6           0.004132160   -0.007761668    0.000000000
      6        6          -0.036174764    0.012530665    0.000000000
      7        1          -0.000493062    0.000654887    0.000000000
      8        1          -0.000293977   -0.000112393    0.000000000
      9        1          -0.000021546    0.000254511    0.000000000
     10        1          -0.000516968    0.000211646    0.000000000
     11        1          -0.001912420    0.002605432    0.000000000
     12        6          -0.025879924   -0.120808271    0.000000000
     13        8           0.067609125    0.088046969    0.000000000
     14        1          -0.004544487    0.018588660    0.000000000
 -------------------------------------------------------------------
 Cartesian Forces:  Max     0.120808271 RMS     0.026524715

 GradGradGradGradGradGradGradGradGradGradGradGradGradGradGradGradGradGrad
 Berny optimization.
 FormGI is forming the generalized inverse of G from B-inverse, IUseBI=4.
 Internal  Forces:  Max     0.110818229 RMS     0.015165476
 Search for a local minimum.
 Step number   1 out of a maximum of   73
 All quantities printed in internal units (Hartrees-Bohrs-Radians)
 Mixed Optimization -- RFO/linear search
 Second derivative matrix not updated -- first step.
 ITU=  0
     Eigenvalues ---    0.00237   0.00237   0.01611   0.02221   0.02221
     Eigenvalues ---    0.02221   0.02221   0.02221   0.02221   0.02221
     Eigenvalues ---    0.02221   0.16000   0.16000   0.16000   0.16000
     Eigenvalues ---    0.16000   0.16000   0.22000   0.22000   0.22000
     Eigenvalues ---    0.23486   0.25000   0.28519   0.35346   0.35346
     Eigenvalues ---    0.35346   0.35346   0.35346   0.37230   0.42798
     Eigenvalues ---    0.42991   0.47320   0.47320   0.47320   0.47320
     Eigenvalues ---    0.66833
 RFO step:  Lambda=-2.47944189D-02 EMin= 2.36824113D-03
 Linear search not attempted -- first point.
 Iteration  1 RMS(Cart)=  0.03592688 RMS(Int)=  0.00068041
 Iteration  2 RMS(Cart)=  0.00088327 RMS(Int)=  0.00000138
 Iteration  3 RMS(Cart)=  0.00000133 RMS(Int)=  0.00000039
 Iteration  4 RMS(Cart)=  0.00000000 RMS(Int)=  0.00000039
 ClnCor:  largest displacement from symmetrization is 7.73D-11 for atom    12.
 Variable       Old X    -DE/DX   Delta X   Delta X   Delta X     New X
                                 (Linear)    (Quad)   (Total)
    R1        2.62671  -0.00234   0.00000  -0.00463  -0.00463   2.62208
    R2        2.62671   0.00249   0.00000   0.00511   0.00511   2.63182
    R3        2.05117   0.00078   0.00000   0.00206   0.00206   2.05323
    R4        2.62671   0.00027   0.00000   0.00050   0.00050   2.62721
    R5        2.05117  -0.00028   0.00000  -0.00073  -0.00073   2.05043
    R6        2.62671   0.00343   0.00000   0.00677   0.00677   2.63348
    R7        2.05117  -0.00007   0.00000  -0.00018  -0.00018   2.05098
    R8        2.62671  -0.00416   0.00000  -0.00842  -0.00842   2.61829
    R9        2.05117  -0.00037   0.00000  -0.00097  -0.00097   2.05019
   R10        2.62671   0.00092   0.00000   0.00189   0.00189   2.62860
   R11        2.05117  -0.00071   0.00000  -0.00188  -0.00188   2.04928
   R12        2.91018  -0.03921   0.00000  -0.12648  -0.12648   2.78370
   R13        2.45910  -0.11082   0.00000  -0.15988  -0.15988   2.29922
   R14        2.02201   0.01906   0.00000   0.04800   0.04800   2.07000
    A1        2.09440  -0.00077   0.00000  -0.00259  -0.00259   2.09181
    A2        2.09440   0.00065   0.00000   0.00270   0.00270   2.09709
    A3        2.09440   0.00013   0.00000  -0.00011  -0.00011   2.09429
    A4        2.09440  -0.00154   0.00000  -0.00605  -0.00605   2.08835
    A5        2.09440   0.00062   0.00000   0.00220   0.00220   2.09660
    A6        2.09440   0.00092   0.00000   0.00385   0.00385   2.09824
    A7        2.09440   0.00153   0.00000   0.00616   0.00616   2.10056
    A8        2.09440  -0.00102   0.00000  -0.00445  -0.00445   2.08995
    A9        2.09440  -0.00052   0.00000  -0.00172  -0.00172   2.09268
   A10        2.09440   0.00047   0.00000   0.00177   0.00177   2.09617
   A11        2.09440   0.00019   0.00000   0.00144   0.00144   2.09584
   A12        2.09440  -0.00067   0.00000  -0.00321  -0.00322   2.09118
   A13        2.09440  -0.00234   0.00000  -0.00941  -0.00941   2.08499
   A14        2.09440   0.00440   0.00000   0.02220   0.02220   2.11659
   A15        2.09440  -0.00206   0.00000  -0.01279  -0.01279   2.08160
   A16        2.09440   0.00265   0.00000   0.01011   0.01011   2.10451
   A17        2.09440  -0.00116   0.00000  -0.00447  -0.00447   2.08992
   A18        2.09440  -0.00149   0.00000  -0.00564  -0.00564   2.08876
   A19        2.09241   0.01185   0.00000   0.04842   0.04842   2.14083
   A20        2.09241  -0.00766   0.00000  -0.03360  -0.03360   2.05882
   A21        2.09836  -0.00419   0.00000  -0.01482  -0.01482   2.08354
    D1        0.00000   0.00000   0.00000   0.00000   0.00000   0.00000
    D2        3.14159   0.00000   0.00000   0.00000   0.00000   3.14159
    D3        3.14159   0.00000   0.00000   0.00000   0.00000   3.14159
    D4        0.00000   0.00000   0.00000   0.00000   0.00000   0.00000
    D5        0.00000   0.00000   0.00000   0.00000   0.00000   0.00000
    D6        3.14159   0.00000   0.00000   0.00000   0.00000   3.14159
    D7        3.14159   0.00000   0.00000   0.00000   0.00000   3.14159
    D8        0.00000   0.00000   0.00000   0.00000   0.00000   0.00000
    D9        0.00000   0.00000   0.00000   0.00000   0.00000   0.00000
   D10        3.14159   0.00000   0.00000   0.00000   0.00000   3.14159
   D11        3.14159   0.00000   0.00000   0.00000   0.00000   3.14159
   D12        0.00000   0.00000   0.00000   0.00000   0.00000   0.00000
   D13        0.00000   0.00000   0.00000   0.00000   0.00000   0.00000
   D14        3.14159   0.00000   0.00000   0.00000   0.00000   3.14159
   D15        3.14159   0.00000   0.00000   0.00000   0.00000   3.14159
   D16        0.00000   0.00000   0.00000   0.00000   0.00000   0.00000
   D17        0.00000   0.00000   0.00000   0.00000   0.00000   0.00000
   D18        3.14159   0.00000   0.00000   0.00000   0.00000   3.14159
   D19        3.14159   0.00000   0.00000   0.00000   0.00000   3.14159
   D20        0.00000   0.00000   0.00000   0.00000   0.00000   0.00000
   D21        0.00000   0.00000   0.00000   0.00000   0.00000   0.00000
   D22        3.14159   0.00000   0.00000   0.00000   0.00000   3.14159
   D23        3.14159   0.00000   0.00000   0.00000   0.00000   3.14159
   D24        0.00000   0.00000   0.00000   0.00000   0.00000   0.00000
   D25        3.14159   0.00000   0.00000   0.00000   0.00000   3.14159
   D26        0.00000   0.00000   0.00000   0.00000   0.00000   0.00000
   D27        0.00000   0.00000   0.00000   0.00000   0.00000   0.00000
   D28        3.14159   0.00000   0.00000   0.00000   0.00000   3.14159
         Item               Value     Threshold  Converged?
 Maximum Force            0.110818     0.000450     NO 
 RMS     Force            0.015165     0.000300     NO 
 Maximum Displacement     0.137771     0.001800     NO 
 RMS     Displacement     0.036302     0.001200     NO 
 Predicted change in Energy=-1.300191D-02
 GradGradGradGradGradGradGradGradGradGradGradGradGradGradGradGradGradGrad

                          Input orientation:                          
 ---------------------------------------------------------------------
 Center     Atomic      Atomic             Coordinates (Angstroms)
 Number     Number       Type             X           Y           Z
 ---------------------------------------------------------------------
      1          6           0        0.381516    1.290653    0.000000
      2          6           0        1.745648    1.036832    0.000000
      3          6           0        2.200868   -0.276785    0.000000
      4          6           0        1.295187   -1.335936    0.000000
      5          6           0       -0.067448   -1.085051    0.000000
      6          6           0       -0.520972    0.229932    0.000000
      7          1           0        0.016784    2.314127    0.000000
      8          1           0        2.452720    1.859854    0.000000
      9          1           0        3.267567   -0.477031    0.000000
     10          1           0        1.655259   -2.359355    0.000000
     11          1           0       -0.788906   -1.894678    0.000000
     12          6           0       -1.968677    0.502120    0.000000
     13          8           0       -2.803243   -0.383231    0.000000
     14          1           0       -2.294666    1.547887    0.000000
 ---------------------------------------------------------------------
                    Distance matrix (angstroms):
                    1          2          3          4          5
     1  C    0.000000
     2  C    1.387545   0.000000
     3  C    2.401438   1.390257   0.000000
     4  C    2.780964   2.415149   1.393577   0.000000
     5  C    2.417755   2.791005   2.408018   1.385539   0.000000
     6  C    1.392700   2.405962   2.768605   2.397994   1.390994
     7  H    1.086521   2.149523   3.388664   3.867463   3.400221
     8  H    2.147994   1.085041   2.151431   3.398963   3.876043
     9  H    3.384376   2.146630   1.085332   2.151279   3.389988
    10  H    3.865874   3.397390   2.152856   1.084914   2.142795
    11  H    3.393556   3.875270   3.399460   2.157693   1.084434
    12  C    2.478950   3.752617   4.241674   3.745832   2.476648
    13  O    3.597857   4.765395   5.005243   4.207705   2.824381
    14  H    2.688516   4.072507   4.851726   4.604723   3.448603
                    6          7          8          9         10
     6  C    0.000000
     7  H    2.152452   0.000000
     8  H    3.391090   2.477932   0.000000
     9  H    3.853936   4.284641   2.474875   0.000000
    10  H    3.382364   4.952376   4.293911   2.478444   0.000000
    11  H    2.141437   4.285227   4.960307   4.297057   2.487944
    12  C    1.473071   2.688015   4.625170   5.327006   4.617461
    13  O    2.363203   3.902344   5.714593   6.071535   4.876813
    14  H    2.209750   2.435144   4.757625   5.919352   5.555938
                   11         12         13         14
    11  H    0.000000
    12  C    2.671422   0.000000
    13  O    2.518338   1.216694   0.000000
    14  H    3.757468   1.095398   1.996964   0.000000
 Stoichiometry    C7H6O
 Framework group  CS[SG(C7H6O)]
 Deg. of freedom    25
 Full point group                 CS      NOp   2
 Largest Abelian subgroup         CS      NOp   2
 Largest concise Abelian subgroup C1      NOp   1
                         Standard orientation:                         
 ---------------------------------------------------------------------
 Center     Atomic      Atomic             Coordinates (Angstroms)
 Number     Number       Type             X           Y           Z
 ---------------------------------------------------------------------
      1          6           0       -1.332307    0.167669    0.000000
      2          6           0       -1.642467   -1.184766    0.000000
      3          6           0       -0.618612   -2.125264    0.000000
      4          6           0        0.713524   -1.716034    0.000000
      5          6           0        1.025783   -0.366140    0.000000
      6          6           0        0.000000    0.573345    0.000000
      7          1           0       -2.126015    0.909662    0.000000
      8          1           0       -2.678931   -1.505794    0.000000
      9          1           0       -0.859524   -3.183521    0.000000
     10          1           0        1.509039   -2.453731    0.000000
     11          1           0        2.055685   -0.026583    0.000000
     12          6           0        0.326578    2.009759    0.000000
     13          8           0        1.470970    2.422934    0.000000
     14          1           0       -0.503004    2.725085    0.000000
 ---------------------------------------------------------------------
 Rotational constants (GHZ):      5.2586720      1.5918522      1.2219544
 Standard basis: 6-311+G(2d,p) (5D, 7F)
 There are   198 symmetry adapted cartesian basis functions of A'  symmetry.
 There are    70 symmetry adapted cartesian basis functions of A"  symmetry.
 There are   182 symmetry adapted basis functions of A'  symmetry.
 There are    70 symmetry adapted basis functions of A"  symmetry.
   252 basis functions,   384 primitive gaussians,   268 cartesian basis functions
    28 alpha electrons       28 beta electrons
       nuclear repulsion energy       322.5097126461 Hartrees.
 NAtoms=   14 NActive=   14 NUniq=   14 SFac= 1.00D+00 NAtFMM=   60 NAOKFM=F Big=F
 Integral buffers will be    262144 words long.
 Raffenetti 2 integral format.
 Two-electron integral symmetry is turned on.
 R6APFD:  NTU= -4 IXU= 1 FactS= 1.050
 Nuclear repulsion after empirical dispersion term =      322.5035105778 Hartrees.
 One-electron integrals computed using PRISM.
 NBasis=   252 RedAO= T EigKep=  4.55D-06  NBF=   182    70
 NBsUse=   252 1.00D-06 EigRej= -1.00D+00 NBFU=   182    70
 Initial guess from the checkpoint file:  "D:\mindmap\gaussian\calculate\opt_freq\C6H5COH\C6H5OH.chk"
 B after Tr=     0.000000    0.000000    0.000000
         Rot=    0.994214    0.000000    0.000000    0.107417 Ang=  12.33 deg.
 Initial guess orbital symmetries:
       Occupied  (A') (A') (A') (A') (A') (A') (A') (A') (A') (A')
                 (A') (A') (A') (A') (A') (A') (A') (A') (A') (A')
                 (A') (A") (A') (A") (A') (A") (A") (A')
       Virtual   (A') (A') (A') (A') (A') (A') (A') (A') (A') (A')
                 (A') (A') (A') (A') (A') (A') (A') (A') (A') (A')
                 (A') (A') (A') (A') (A') (A') (A') (A') (A') (A')
                 (A') (A') (A') (A') (A') (A') (A') (A') (A') (A')
                 (A') (A') (A') (A') (A') (A') (A') (A') (A') (A')
                 (A') (A') (A') (A') (A') (A') (A') (A') (A') (A')
                 (A') (A') (A') (A') (A') (A') (A') (A') (A') (A')
                 (A') (A') (A') (A') (A') (A') (A') (A') (A') (A')
                 (A') (A') (A') (A') (A') (A') (A') (A') (A') (A')
                 (A') (A') (A') (A') (A') (A') (A') (A') (A') (A')
                 (A') (A') (A') (A') (A') (A') (A') (A') (A') (A')
                 (A') (A') (A') (A') (A') (A') (A') (A') (A') (A')
                 (A') (A') (A') (A') (A') (A') (A') (A') (A') (A')
                 (A') (A') (A') (A') (A') (A') (A') (A') (A') (A')
                 (A') (A') (A') (A') (A') (A') (A') (A') (A') (A')
                 (A') (A') (A') (A') (A') (A') (A') (A') (A") (A")
                 (A") (A") (A") (A") (A") (A") (A") (A") (A") (A")
                 (A") (A") (A") (A") (A") (A") (A") (A") (A") (A")
                 (A") (A") (A") (A") (A") (A") (A") (A") (A") (A")
                 (A") (A") (A") (A") (A") (A") (A") (A") (A") (A")
                 (A") (A") (A") (A") (A") (A") (A") (A") (A") (A")
                 (A") (A") (A") (A") (A") (A") (A") (A") (A") (A")
                 (A") (A") (A") (A")
 ExpMin= 4.38D-02 ExpMax= 8.59D+03 ExpMxC= 1.30D+03 IAcc=2 IRadAn=         4 AccDes= 0.00D+00
 Harris functional with IExCor= 3731 and IRadAn=       4 diagonalized for initial guess.
 HarFok:  IExCor= 3731 AccDes= 0.00D+00 IRadAn=         4 IDoV= 1 UseB2=F ITyADJ=14
 ICtDFT=  3500011 ScaDFX=  1.000000  1.000000  1.000000  1.000000
 FoFCou: FMM=F IPFlag=           0 FMFlag=      100000 FMFlg1=           0
         NFxFlg=           0 DoJE=T BraDBF=F KetDBF=T FulRan=T
         wScrn=  0.000000 ICntrl=     500 IOpCl=  0 I1Cent=   200000004 NGrid=           0
         NMat0=    1 NMatS0=      1 NMatT0=    0 NMatD0=    1 NMtDS0=    0 NMtDT0=    0
 Petite list used in FoFCou.
 Requested convergence on RMS density matrix=1.00D-08 within 128 cycles.
 Requested convergence on MAX density matrix=1.00D-06.
 Requested convergence on             energy=1.00D-06.
 No special actions if energy rises.
 SCF Done:  E(RAPFD) =  -345.381173274     A.U. after   12 cycles
            NFock= 12  Conv=0.78D-08     -V/T= 2.0040
 R6APFD:  NTU= -4 IXU= 1 FactS= 1.050
 Calling FoFJK, ICntrl=      2127 FMM=F ISym2X=1 I1Cent= 0 IOpClX= 0 NMat=1 NMatS=1 NMatT=0.
 ***** Axes restored to original set *****
 -------------------------------------------------------------------
 Center     Atomic                   Forces (Hartrees/Bohr)
 Number     Number              X              Y              Z
 -------------------------------------------------------------------
      1        6           0.001697168   -0.000760675    0.000000000
      2        6           0.000411490    0.000163032    0.000000000
      3        6          -0.000229734    0.000383401    0.000000000
      4        6          -0.000924059   -0.000167122    0.000000000
      5        6           0.005141477   -0.002667141    0.000000000
      6        6          -0.003758159    0.006877104    0.000000000
      7        1          -0.000780226   -0.000225644    0.000000000
      8        1           0.000182055   -0.000228778    0.000000000
      9        1           0.000033494   -0.000165818    0.000000000
     10        1           0.000505453    0.000028145    0.000000000
     11        1          -0.000840790    0.000843777    0.000000000
     12        6          -0.008744748   -0.023201068    0.000000000
     13        8           0.005857051    0.010260601    0.000000000
     14        1           0.001449530    0.008860186    0.000000000
 -------------------------------------------------------------------
 Cartesian Forces:  Max     0.023201068 RMS     0.004723551

 GradGradGradGradGradGradGradGradGradGradGradGradGradGradGradGradGradGrad
 Berny optimization.
 Using GEDIIS/GDIIS optimizer.
 FormGI is forming the generalized inverse of G from B-inverse, IUseBI=4.
 Internal  Forces:  Max     0.011485913 RMS     0.002309931
 Search for a local minimum.
 Step number   2 out of a maximum of   73
 All quantities printed in internal units (Hartrees-Bohrs-Radians)
 Mixed Optimization -- RFO/linear search
 Update second derivatives using D2CorX and points    1    2
 DE= -1.46D-02 DEPred=-1.30D-02 R= 1.12D+00
 TightC=F SS=  1.41D+00  RLast= 2.21D-01 DXNew= 5.0454D-01 6.6257D-01
 Trust test= 1.12D+00 RLast= 2.21D-01 DXMaxT set to 5.05D-01
 ITU=  1  0
 Use linear search instead of GDIIS.
     Eigenvalues ---    0.00237   0.00237   0.01617   0.02221   0.02221
     Eigenvalues ---    0.02221   0.02221   0.02221   0.02221   0.02221
     Eigenvalues ---    0.02221   0.15711   0.16000   0.16000   0.16000
     Eigenvalues ---    0.16000   0.16035   0.21080   0.22000   0.22006
     Eigenvalues ---    0.23557   0.24985   0.30265   0.35345   0.35346
     Eigenvalues ---    0.35346   0.35346   0.35348   0.36191   0.42838
     Eigenvalues ---    0.42950   0.47230   0.47320   0.47320   0.47374
     Eigenvalues ---    0.64173
 RFO step:  Lambda=-8.53615542D-04 EMin= 2.36824113D-03
 Quartic linear search produced a step of  0.09857.
 Iteration  1 RMS(Cart)=  0.01689034 RMS(Int)=  0.00034952
 Iteration  2 RMS(Cart)=  0.00035170 RMS(Int)=  0.00000232
 Iteration  3 RMS(Cart)=  0.00000016 RMS(Int)=  0.00000231
 ClnCor:  largest displacement from symmetrization is 5.58D-11 for atom    12.
 Variable       Old X    -DE/DX   Delta X   Delta X   Delta X     New X
                                 (Linear)    (Quad)   (Total)
    R1        2.62208   0.00051  -0.00046   0.00158   0.00113   2.62321
    R2        2.63182   0.00041   0.00050   0.00062   0.00113   2.63295
    R3        2.05323   0.00005   0.00020  -0.00006   0.00014   2.05337
    R4        2.62721  -0.00032   0.00005  -0.00096  -0.00091   2.62629
    R5        2.05043  -0.00006  -0.00007  -0.00010  -0.00017   2.05026
    R6        2.63348  -0.00020   0.00067  -0.00122  -0.00056   2.63292
    R7        2.05098   0.00006  -0.00002   0.00022   0.00020   2.05118
    R8        2.61829  -0.00054  -0.00083  -0.00043  -0.00126   2.61703
    R9        2.05019   0.00014  -0.00010   0.00054   0.00044   2.05063
   R10        2.62860   0.00317   0.00019   0.00735   0.00754   2.63614
   R11        2.04928  -0.00007  -0.00019  -0.00002  -0.00021   2.04907
   R12        2.78370   0.00066  -0.01247   0.01663   0.00417   2.78787
   R13        2.29922  -0.01149  -0.01576  -0.00541  -0.02117   2.27805
   R14        2.07000   0.00803   0.00473   0.01882   0.02355   2.09356
    A1        2.09181   0.00102  -0.00026   0.00543   0.00518   2.09699
    A2        2.09709   0.00032   0.00027   0.00274   0.00300   2.10010
    A3        2.09429  -0.00134  -0.00001  -0.00818  -0.00819   2.08610
    A4        2.08835   0.00005  -0.00060   0.00032  -0.00028   2.08807
    A5        2.09660   0.00027   0.00022   0.00199   0.00221   2.09881
    A6        2.09824  -0.00032   0.00038  -0.00231  -0.00193   2.09631
    A7        2.10056   0.00022   0.00061  -0.00062  -0.00002   2.10054
    A8        2.08995   0.00006  -0.00044   0.00163   0.00120   2.09115
    A9        2.09268  -0.00027  -0.00017  -0.00102  -0.00118   2.09150
   A10        2.09617  -0.00010   0.00017  -0.00119  -0.00102   2.09515
   A11        2.09584  -0.00044   0.00014  -0.00314  -0.00299   2.09285
   A12        2.09118   0.00055  -0.00032   0.00432   0.00401   2.09519
   A13        2.08499   0.00101  -0.00093   0.00642   0.00549   2.09048
   A14        2.11659   0.00072   0.00219   0.00253   0.00471   2.12131
   A15        2.08160  -0.00172  -0.00126  -0.00894  -0.01020   2.07140
   A16        2.10451  -0.00219   0.00100  -0.01036  -0.00936   2.09515
   A17        2.08992  -0.00032  -0.00044  -0.00110  -0.00154   2.08838
   A18        2.08876   0.00251  -0.00056   0.01146   0.01090   2.09966
   A19        2.14083   0.00704   0.00477   0.02891   0.03368   2.17451
   A20        2.05882  -0.00768  -0.00331  -0.04149  -0.04480   2.01401
   A21        2.08354   0.00065  -0.00146   0.01258   0.01112   2.09466
    D1        0.00000   0.00000   0.00000   0.00000   0.00000   0.00000
    D2        3.14159   0.00000   0.00000   0.00000   0.00000   3.14159
    D3        3.14159   0.00000   0.00000   0.00000   0.00000   3.14159
    D4        0.00000   0.00000   0.00000   0.00000   0.00000   0.00000
    D5        0.00000   0.00000   0.00000   0.00000   0.00000   0.00000
    D6        3.14159   0.00000   0.00000   0.00000   0.00000   3.14159
    D7        3.14159   0.00000   0.00000   0.00000   0.00000   3.14159
    D8        0.00000   0.00000   0.00000   0.00000   0.00000   0.00000
    D9        0.00000   0.00000   0.00000   0.00000   0.00000   0.00000
   D10        3.14159   0.00000   0.00000   0.00000   0.00000   3.14159
   D11        3.14159   0.00000   0.00000   0.00000   0.00000   3.14159
   D12        0.00000   0.00000   0.00000   0.00000   0.00000   0.00000
   D13        0.00000   0.00000   0.00000   0.00000   0.00000   0.00000
   D14        3.14159   0.00000   0.00000   0.00000   0.00000   3.14159
   D15        3.14159   0.00000   0.00000   0.00000   0.00000   3.14159
   D16        0.00000   0.00000   0.00000   0.00000   0.00000   0.00000
   D17        0.00000   0.00000   0.00000   0.00000   0.00000   0.00000
   D18        3.14159   0.00000   0.00000   0.00000   0.00000   3.14159
   D19        3.14159   0.00000   0.00000   0.00000   0.00000   3.14159
   D20        0.00000   0.00000   0.00000   0.00000   0.00000   0.00000
   D21        0.00000   0.00000   0.00000   0.00000   0.00000   0.00000
   D22        3.14159   0.00000   0.00000   0.00000   0.00000   3.14159
   D23        3.14159   0.00000   0.00000   0.00000   0.00000   3.14159
   D24        0.00000   0.00000   0.00000   0.00000   0.00000   0.00000
   D25        3.14159   0.00000   0.00000   0.00000   0.00000   3.14159
   D26        0.00000   0.00000   0.00000   0.00000   0.00000   0.00000
   D27        0.00000   0.00000   0.00000   0.00000   0.00000   0.00000
   D28        3.14159   0.00000   0.00000   0.00000   0.00000   3.14159
         Item               Value     Threshold  Converged?
 Maximum Force            0.011486     0.000450     NO 
 RMS     Force            0.002310     0.000300     NO 
 Maximum Displacement     0.068987     0.001800     NO 
 RMS     Displacement     0.016896     0.001200     NO 
 Predicted change in Energy=-6.146588D-04
 GradGradGradGradGradGradGradGradGradGradGradGradGradGradGradGradGradGrad

                          Input orientation:                          
 ---------------------------------------------------------------------
 Center     Atomic      Atomic             Coordinates (Angstroms)
 Number     Number       Type             X           Y           Z
 ---------------------------------------------------------------------
      1          6           0        0.374650    1.282051    0.000000
      2          6           0        1.740795    1.035911    0.000000
      3          6           0        2.202974   -0.274763    0.000000
      4          6           0        1.303227   -1.338571    0.000000
      5          6           0       -0.059840   -1.093789    0.000000
      6          6           0       -0.527671    0.220407    0.000000
      7          1           0        0.000993    2.302381    0.000000
      8          1           0        2.444930    1.861329    0.000000
      9          1           0        3.270613   -0.470516    0.000000
     10          1           0        1.671961   -2.359151    0.000000
     11          1           0       -0.781487   -1.903099    0.000000
     12          6           0       -1.977263    0.494488    0.000000
     13          8           0       -2.834085   -0.353489    0.000000
     14          1           0       -2.258159    1.566149    0.000000
 ---------------------------------------------------------------------
                    Distance matrix (angstroms):
                    1          2          3          4          5
     1  C    0.000000
     2  C    1.388141   0.000000
     3  C    2.401341   1.389775   0.000000
     4  C    2.780273   2.414462   1.393281   0.000000
     5  C    2.415243   2.788890   2.406477   1.384872   0.000000
     6  C    1.393296   2.410599   2.775179   2.404704   1.394983
     7  H    1.086597   2.151943   3.389748   3.866826   3.396715
     8  H    2.149795   1.084952   2.149751   3.397476   3.873834
     9  H    3.384981   2.147013   1.085437   2.150379   3.388272
    10  H    3.865407   3.395759   2.150964   1.085149   2.144825
    11  H    3.388486   3.872942   3.399777   2.159797   1.084323
    12  C    2.480273   3.757272   4.250427   3.757888   2.489806
    13  O    3.601524   4.781209   5.037674   4.252968   2.871320
    14  H    2.648093   4.033954   4.826040   4.595744   3.450779
                    6          7          8          9         10
     6  C    0.000000
     7  H    2.148047   0.000000
     8  H    3.395435   2.483416   0.000000
     9  H    3.860614   4.287117   2.473712   0.000000
    10  H    3.390059   4.951971   4.290679   2.474395   0.000000
    11  H    2.138621   4.277656   4.957891   4.297884   2.495474
    12  C    1.475275   2.679921   4.628611   5.335864   4.632504
    13  O    2.376742   3.884754   5.724807   6.105820   4.932254
    14  H    2.192170   2.376091   4.712343   5.891972   5.554622
                   11         12         13         14
    11  H    0.000000
    12  C    2.679236   0.000000
    13  O    2.571857   1.205491   0.000000
    14  H    3.770443   1.107862   2.004171   0.000000
 Stoichiometry    C7H6O
 Framework group  CS[SG(C7H6O)]
 Deg. of freedom    25
 Full point group                 CS      NOp   2
 Largest Abelian subgroup         CS      NOp   2
 Largest concise Abelian subgroup C1      NOp   1
                         Standard orientation:                         
 ---------------------------------------------------------------------
 Center     Atomic      Atomic             Coordinates (Angstroms)
 Number     Number       Type             X           Y           Z
 ---------------------------------------------------------------------
      1          6           0       -1.325791    0.142865    0.000000
      2          6           0       -1.620097   -1.213720    0.000000
      3          6           0       -0.585314   -2.141459    0.000000
      4          6           0        0.741493   -1.716235    0.000000
      5          6           0        1.035879   -0.363015    0.000000
      6          6           0        0.000000    0.571294    0.000000
      7          1           0       -2.126052    0.877899    0.000000
      8          1           0       -2.651875   -1.549212    0.000000
      9          1           0       -0.812176   -3.202923    0.000000
     10          1           0        1.543865   -2.446815    0.000000
     11          1           0        2.059459   -0.005186    0.000000
     12          6           0        0.300355    2.015670    0.000000
     13          8           0        1.411300    2.483657    0.000000
     14          1           0       -0.582774    2.684581    0.000000
 ---------------------------------------------------------------------
 Rotational constants (GHZ):      5.2828575      1.5761419      1.2139574
 Standard basis: 6-311+G(2d,p) (5D, 7F)
 There are   198 symmetry adapted cartesian basis functions of A'  symmetry.
 There are    70 symmetry adapted cartesian basis functions of A"  symmetry.
 There are   182 symmetry adapted basis functions of A'  symmetry.
 There are    70 symmetry adapted basis functions of A"  symmetry.
   252 basis functions,   384 primitive gaussians,   268 cartesian basis functions
    28 alpha electrons       28 beta electrons
       nuclear repulsion energy       322.1696075530 Hartrees.
 NAtoms=   14 NActive=   14 NUniq=   14 SFac= 1.00D+00 NAtFMM=   60 NAOKFM=F Big=F
 Integral buffers will be    262144 words long.
 Raffenetti 2 integral format.
 Two-electron integral symmetry is turned on.
 R6APFD:  NTU= -4 IXU= 1 FactS= 1.050
 Nuclear repulsion after empirical dispersion term =      322.1634362635 Hartrees.
 One-electron integrals computed using PRISM.
 NBasis=   252 RedAO= T EigKep=  4.55D-06  NBF=   182    70
 NBsUse=   252 1.00D-06 EigRej= -1.00D+00 NBFU=   182    70
 Initial guess from the checkpoint file:  "D:\mindmap\gaussian\calculate\opt_freq\C6H5COH\C6H5OH.chk"
 B after Tr=     0.000000    0.000000    0.000000
         Rot=    0.999954    0.000000    0.000000   -0.009592 Ang=  -1.10 deg.
 Initial guess orbital symmetries:
       Occupied  (A') (A') (A') (A') (A') (A') (A') (A') (A') (A')
                 (A') (A') (A') (A') (A') (A') (A') (A') (A') (A')
                 (A') (A") (A") (A') (A') (A") (A") (A')
       Virtual   (A') (A') (A') (A') (A') (A') (A') (A') (A') (A')
                 (A') (A') (A') (A') (A') (A') (A') (A') (A') (A')
                 (A') (A') (A') (A') (A') (A') (A') (A') (A') (A')
                 (A') (A') (A') (A') (A') (A') (A') (A') (A') (A')
                 (A') (A') (A') (A') (A') (A') (A') (A') (A') (A')
                 (A') (A') (A') (A') (A') (A') (A') (A') (A') (A')
                 (A') (A') (A') (A') (A') (A') (A') (A') (A') (A')
                 (A') (A') (A') (A') (A') (A') (A') (A') (A') (A')
                 (A') (A') (A') (A') (A') (A') (A') (A') (A') (A')
                 (A') (A') (A') (A') (A') (A') (A') (A') (A') (A')
                 (A') (A') (A') (A') (A') (A') (A') (A') (A') (A')
                 (A') (A') (A') (A') (A') (A') (A') (A') (A') (A')
                 (A') (A') (A') (A') (A') (A') (A') (A') (A') (A')
                 (A') (A') (A') (A') (A') (A') (A') (A') (A') (A')
                 (A') (A') (A') (A') (A') (A') (A') (A') (A') (A')
                 (A') (A') (A') (A') (A') (A') (A') (A') (A") (A")
                 (A") (A") (A") (A") (A") (A") (A") (A") (A") (A")
                 (A") (A") (A") (A") (A") (A") (A") (A") (A") (A")
                 (A") (A") (A") (A") (A") (A") (A") (A") (A") (A")
                 (A") (A") (A") (A") (A") (A") (A") (A") (A") (A")
                 (A") (A") (A") (A") (A") (A") (A") (A") (A") (A")
                 (A") (A") (A") (A") (A") (A") (A") (A") (A") (A")
                 (A") (A") (A") (A")
 ExpMin= 4.38D-02 ExpMax= 8.59D+03 ExpMxC= 1.30D+03 IAcc=2 IRadAn=         4 AccDes= 0.00D+00
 Harris functional with IExCor= 3731 and IRadAn=       4 diagonalized for initial guess.
 HarFok:  IExCor= 3731 AccDes= 0.00D+00 IRadAn=         4 IDoV= 1 UseB2=F ITyADJ=14
 ICtDFT=  3500011 ScaDFX=  1.000000  1.000000  1.000000  1.000000
 FoFCou: FMM=F IPFlag=           0 FMFlag=      100000 FMFlg1=           0
         NFxFlg=           0 DoJE=T BraDBF=F KetDBF=T FulRan=T
         wScrn=  0.000000 ICntrl=     500 IOpCl=  0 I1Cent=   200000004 NGrid=           0
         NMat0=    1 NMatS0=      1 NMatT0=    0 NMatD0=    1 NMtDS0=    0 NMtDT0=    0
 Petite list used in FoFCou.
 Requested convergence on RMS density matrix=1.00D-08 within 128 cycles.
 Requested convergence on MAX density matrix=1.00D-06.
 Requested convergence on             energy=1.00D-06.
 No special actions if energy rises.
 SCF Done:  E(RAPFD) =  -345.381794415     A.U. after   11 cycles
            NFock= 11  Conv=0.77D-08     -V/T= 2.0040
 R6APFD:  NTU= -4 IXU= 1 FactS= 1.050
 Calling FoFJK, ICntrl=      2127 FMM=F ISym2X=1 I1Cent= 0 IOpClX= 0 NMat=1 NMatS=1 NMatT=0.
 ***** Axes restored to original set *****
 -------------------------------------------------------------------
 Center     Atomic                   Forces (Hartrees/Bohr)
 Number     Number              X              Y              Z
 -------------------------------------------------------------------
      1        6          -0.000097952   -0.000218855    0.000000000
      2        6          -0.000158238    0.000008747    0.000000000
      3        6          -0.000159106    0.000397507    0.000000000
      4        6          -0.000814971   -0.000356235    0.000000000
      5        6           0.001308219   -0.000158762    0.000000000
      6        6           0.000034590    0.000650484    0.000000000
      7        1          -0.000161054    0.000155475    0.000000000
      8        1          -0.000086258    0.000020526    0.000000000
      9        1          -0.000010962   -0.000021682    0.000000000
     10        1           0.000004233    0.000039196    0.000000000
     11        1          -0.000410778   -0.000144890    0.000000000
     12        6           0.000854620   -0.000981170    0.000000000
     13        8          -0.001102741   -0.001846523    0.000000000
     14        1           0.000800398    0.002456181    0.000000000
 -------------------------------------------------------------------
 Cartesian Forces:  Max     0.002456181 RMS     0.000626024

 GradGradGradGradGradGradGradGradGradGradGradGradGradGradGradGradGradGrad
 Berny optimization.
 Using GEDIIS/GDIIS optimizer.
 FormGI is forming the generalized inverse of G from B-inverse, IUseBI=4.
 Internal  Forces:  Max     0.002174814 RMS     0.000507963
 Search for a local minimum.
 Step number   3 out of a maximum of   73
 All quantities printed in internal units (Hartrees-Bohrs-Radians)
 Mixed Optimization -- En-DIIS/RFO-DIIS
 Update second derivatives using D2CorX and points    1    2    3
 DE= -6.21D-04 DEPred=-6.15D-04 R= 1.01D+00
 TightC=F SS=  1.41D+00  RLast= 6.97D-02 DXNew= 8.4853D-01 2.0902D-01
 Trust test= 1.01D+00 RLast= 6.97D-02 DXMaxT set to 5.05D-01
 ITU=  1  1  0
 Use linear search instead of GDIIS.
     Eigenvalues ---    0.00237   0.00237   0.01611   0.02221   0.02221
     Eigenvalues ---    0.02221   0.02221   0.02221   0.02221   0.02221
     Eigenvalues ---    0.02221   0.13615   0.16000   0.16000   0.16000
     Eigenvalues ---    0.16010   0.16039   0.21822   0.22003   0.22324
     Eigenvalues ---    0.23854   0.24896   0.29958   0.34655   0.35346
     Eigenvalues ---    0.35346   0.35347   0.35348   0.35432   0.42826
     Eigenvalues ---    0.43164   0.47077   0.47320   0.47334   0.47511
     Eigenvalues ---    0.74428
 RFO step:  Lambda=-5.35184635D-05 EMin= 2.36824113D-03
 Quartic linear search produced a step of  0.09683.
 Iteration  1 RMS(Cart)=  0.00454376 RMS(Int)=  0.00002478
 Iteration  2 RMS(Cart)=  0.00002784 RMS(Int)=  0.00000025
 Iteration  3 RMS(Cart)=  0.00000000 RMS(Int)=  0.00000025
 ClnCor:  largest displacement from symmetrization is 4.89D-13 for atom    12.
 Variable       Old X    -DE/DX   Delta X   Delta X   Delta X     New X
                                 (Linear)    (Quad)   (Total)
    R1        2.62321  -0.00041   0.00011  -0.00104  -0.00093   2.62227
    R2        2.63295  -0.00052   0.00011  -0.00126  -0.00115   2.63180
    R3        2.05337   0.00020   0.00001   0.00062   0.00063   2.05400
    R4        2.62629   0.00000  -0.00009   0.00007  -0.00002   2.62627
    R5        2.05026  -0.00004  -0.00002  -0.00012  -0.00013   2.05013
    R6        2.63292   0.00034  -0.00005   0.00087   0.00081   2.63373
    R7        2.05118  -0.00001   0.00002  -0.00003  -0.00001   2.05116
    R8        2.61703  -0.00081  -0.00012  -0.00180  -0.00193   2.61510
    R9        2.05063  -0.00004   0.00004  -0.00014  -0.00009   2.05054
   R10        2.63614   0.00021   0.00073   0.00004   0.00077   2.63690
   R11        2.04907   0.00038  -0.00002   0.00118   0.00116   2.05023
   R12        2.78787  -0.00061   0.00040  -0.00297  -0.00256   2.78530
   R13        2.27805   0.00208  -0.00205   0.00381   0.00176   2.27980
   R14        2.09356   0.00217   0.00228   0.00517   0.00745   2.10101
    A1        2.09699  -0.00017   0.00050  -0.00118  -0.00068   2.09631
    A2        2.10010   0.00018   0.00029   0.00094   0.00123   2.10133
    A3        2.08610  -0.00002  -0.00079   0.00024  -0.00056   2.08554
    A4        2.08807  -0.00009  -0.00003  -0.00040  -0.00043   2.08764
    A5        2.09881  -0.00003   0.00021  -0.00045  -0.00023   2.09857
    A6        2.09631   0.00012  -0.00019   0.00085   0.00066   2.09697
    A7        2.10054   0.00021   0.00000   0.00120   0.00120   2.10174
    A8        2.09115  -0.00008   0.00012  -0.00049  -0.00037   2.09077
    A9        2.09150  -0.00013  -0.00011  -0.00071  -0.00083   2.09067
   A10        2.09515  -0.00025  -0.00010  -0.00106  -0.00116   2.09399
   A11        2.09285   0.00011  -0.00029   0.00063   0.00034   2.09319
   A12        2.09519   0.00014   0.00039   0.00043   0.00082   2.09601
   A13        2.09048  -0.00007   0.00053  -0.00064  -0.00011   2.09037
   A14        2.12131   0.00025   0.00046   0.00139   0.00184   2.12315
   A15        2.07140  -0.00018  -0.00099  -0.00074  -0.00173   2.06967
   A16        2.09515   0.00037  -0.00091   0.00209   0.00118   2.09633
   A17        2.08838  -0.00068  -0.00015  -0.00285  -0.00300   2.08538
   A18        2.09966   0.00032   0.00106   0.00077   0.00182   2.10148
   A19        2.17451   0.00016   0.00326  -0.00100   0.00227   2.17678
   A20        2.01401  -0.00155  -0.00434  -0.00785  -0.01219   2.00183
   A21        2.09466   0.00138   0.00108   0.00884   0.00992   2.10458
    D1        0.00000   0.00000   0.00000   0.00000   0.00000   0.00000
    D2        3.14159   0.00000   0.00000   0.00000   0.00000   3.14159
    D3        3.14159   0.00000   0.00000   0.00000   0.00000   3.14159
    D4        0.00000   0.00000   0.00000   0.00000   0.00000   0.00000
    D5        0.00000   0.00000   0.00000   0.00000   0.00000   0.00000
    D6        3.14159   0.00000   0.00000   0.00000   0.00000   3.14159
    D7        3.14159   0.00000   0.00000   0.00000   0.00000   3.14159
    D8        0.00000   0.00000   0.00000   0.00000   0.00000   0.00000
    D9        0.00000   0.00000   0.00000   0.00000   0.00000   0.00000
   D10        3.14159   0.00000   0.00000   0.00000   0.00000   3.14159
   D11        3.14159   0.00000   0.00000   0.00000   0.00000   3.14159
   D12        0.00000   0.00000   0.00000   0.00000   0.00000   0.00000
   D13        0.00000   0.00000   0.00000   0.00000   0.00000   0.00000
   D14        3.14159   0.00000   0.00000   0.00000   0.00000   3.14159
   D15        3.14159   0.00000   0.00000   0.00000   0.00000   3.14159
   D16        0.00000   0.00000   0.00000   0.00000   0.00000   0.00000
   D17        0.00000   0.00000   0.00000   0.00000   0.00000   0.00000
   D18        3.14159   0.00000   0.00000   0.00000   0.00000   3.14159
   D19        3.14159   0.00000   0.00000   0.00000   0.00000   3.14159
   D20        0.00000   0.00000   0.00000   0.00000   0.00000   0.00000
   D21        0.00000   0.00000   0.00000   0.00000   0.00000   0.00000
   D22        3.14159   0.00000   0.00000   0.00000   0.00000   3.14159
   D23        3.14159   0.00000   0.00000   0.00000   0.00000   3.14159
   D24        0.00000   0.00000   0.00000   0.00000   0.00000   0.00000
   D25        3.14159   0.00000   0.00000   0.00000   0.00000   3.14159
   D26        0.00000   0.00000   0.00000   0.00000   0.00000   0.00000
   D27        0.00000   0.00000   0.00000   0.00000   0.00000   0.00000
   D28        3.14159   0.00000   0.00000   0.00000   0.00000   3.14159
         Item               Value     Threshold  Converged?
 Maximum Force            0.002175     0.000450     NO 
 RMS     Force            0.000508     0.000300     NO 
 Maximum Displacement     0.028243     0.001800     NO 
 RMS     Displacement     0.004556     0.001200     NO 
 Predicted change in Energy=-3.140628D-05
 GradGradGradGradGradGradGradGradGradGradGradGradGradGradGradGradGradGrad

                          Input orientation:                          
 ---------------------------------------------------------------------
 Center     Atomic      Atomic             Coordinates (Angstroms)
 Number     Number       Type             X           Y           Z
 ---------------------------------------------------------------------
      1          6           0        0.372220    1.280870    0.000000
      2          6           0        1.738167    1.036422    0.000000
      3          6           0        2.201317   -0.273895    0.000000
      4          6           0        1.303362   -1.339779    0.000000
      5          6           0       -0.058892   -1.096246    0.000000
      6          6           0       -0.527742    0.218018    0.000000
      7          1           0       -0.004008    2.300610    0.000000
      8          1           0        2.441092    1.862777    0.000000
      9          1           0        3.269167   -0.468454    0.000000
     10          1           0        1.673719   -2.359719    0.000000
     11          1           0       -0.781804   -1.905247    0.000000
     12          6           0       -1.975685    0.493513    0.000000
     13          8           0       -2.836061   -0.352184    0.000000
     14          1           0       -2.243214    1.572651    0.000000
 ---------------------------------------------------------------------
                    Distance matrix (angstroms):
                    1          2          3          4          5
     1  C    0.000000
     2  C    1.387647   0.000000
     3  C    2.400602   1.389763   0.000000
     4  C    2.781156   2.415655   1.393712   0.000000
     5  C    2.415892   2.788852   2.405163   1.383852   0.000000
     6  C    1.392689   2.409175   2.773038   2.404095   1.395388
     7  H    1.086930   2.152520   3.389917   3.868029   3.397299
     8  H    2.149150   1.084881   2.150084   3.398646   3.873724
     9  H    3.384145   2.146769   1.085429   2.150256   3.386754
    10  H    3.866236   3.396752   2.151516   1.085099   2.144366
    11  H    3.388673   3.873457   3.400047   2.160479   1.084935
    12  C    2.476406   3.753325   4.246912   3.756742   2.490266
    13  O    3.599991   4.780354   5.037987   4.255604   2.875116
    14  H    2.631659   4.017329   4.812857   4.589166   3.448807
                    6          7          8          9         10
     6  C    0.000000
     7  H    2.147437   0.000000
     8  H    3.393995   2.483991   0.000000
     9  H    3.858466   4.287352   2.473934   0.000000
    10  H    3.389861   4.953123   4.291659   2.474336   0.000000
    11  H    2.138411   4.277171   4.958332   4.298225   2.497225
    12  C    1.473919   2.674530   4.624154   5.332341   4.632394
    13  O    2.377703   3.880444   5.723146   6.106336   4.936427
    14  H    2.185835   2.354563   4.693282   5.878134   5.550305
                   11         12         13         14
    11  H    0.000000
    12  C    2.679440   0.000000
    13  O    2.575263   1.206421   0.000000
    14  H    3.772465   1.111805   2.014065   0.000000
 Stoichiometry    C7H6O
 Framework group  CS[SG(C7H6O)]
 Deg. of freedom    25
 Full point group                 CS      NOp   2
 Largest Abelian subgroup         CS      NOp   2
 Largest concise Abelian subgroup C1      NOp   1
                         Standard orientation:                         
 ---------------------------------------------------------------------
 Center     Atomic      Atomic             Coordinates (Angstroms)
 Number     Number       Type             X           Y           Z
 ---------------------------------------------------------------------
      1          6           0       -1.324815    0.140575    0.000000
      2          6           0       -1.616836   -1.215998    0.000000
      3          6           0       -0.580173   -2.141617    0.000000
      4          6           0        0.746687   -1.715148    0.000000
      5          6           0        1.038152   -0.362339    0.000000
      6          6           0        0.000000    0.570050    0.000000
      7          1           0       -2.125597    0.875534    0.000000
      8          1           0       -2.648084   -1.552885    0.000000
      9          1           0       -0.805266   -3.203451    0.000000
     10          1           0        1.549881   -2.444750    0.000000
     11          1           0        2.060926   -0.000376    0.000000
     12          6           0        0.294401    2.014268    0.000000
     13          8           0        1.403278    2.489499    0.000000
     14          1           0       -0.602576    2.671187    0.000000
 ---------------------------------------------------------------------
 Rotational constants (GHZ):      5.2794881      1.5771585      1.2143822
 Standard basis: 6-311+G(2d,p) (5D, 7F)
 There are   198 symmetry adapted cartesian basis functions of A'  symmetry.
 There are    70 symmetry adapted cartesian basis functions of A"  symmetry.
 There are   182 symmetry adapted basis functions of A'  symmetry.
 There are    70 symmetry adapted basis functions of A"  symmetry.
   252 basis functions,   384 primitive gaussians,   268 cartesian basis functions
    28 alpha electrons       28 beta electrons
       nuclear repulsion energy       322.1939202002 Hartrees.
 NAtoms=   14 NActive=   14 NUniq=   14 SFac= 1.00D+00 NAtFMM=   60 NAOKFM=F Big=F
 Integral buffers will be    262144 words long.
 Raffenetti 2 integral format.
 Two-electron integral symmetry is turned on.
 R6APFD:  NTU= -4 IXU= 1 FactS= 1.050
 Nuclear repulsion after empirical dispersion term =      322.1877538041 Hartrees.
 One-electron integrals computed using PRISM.
 NBasis=   252 RedAO= T EigKep=  4.54D-06  NBF=   182    70
 NBsUse=   252 1.00D-06 EigRej= -1.00D+00 NBFU=   182    70
 Initial guess from the checkpoint file:  "D:\mindmap\gaussian\calculate\opt_freq\C6H5COH\C6H5OH.chk"
 B after Tr=     0.000000    0.000000    0.000000
[...]
   R12        2.78630  -0.00002   0.00000  -0.00006  -0.00006   2.78624
   R13        2.27960  -0.00002   0.00000  -0.00001  -0.00001   2.27960
   R14        2.10109  -0.00002   0.00000  -0.00008  -0.00008   2.10102
    A1        2.09636  -0.00001   0.00000  -0.00007  -0.00007   2.09629
    A2        2.10132   0.00000   0.00000   0.00000   0.00000   2.10132
    A3        2.08551   0.00001   0.00000   0.00007   0.00007   2.08557
    A4        2.08759  -0.00001   0.00000  -0.00004  -0.00004   2.08755
    A5        2.09877   0.00001   0.00000   0.00001   0.00001   2.09878
    A6        2.09683   0.00000   0.00000   0.00003   0.00003   2.09686
    A7        2.10175   0.00001   0.00000   0.00005   0.00005   2.10180
    A8        2.09077   0.00001   0.00000   0.00009   0.00009   2.09087
    A9        2.09067  -0.00001   0.00000  -0.00015  -0.00015   2.09052
   A10        2.09403   0.00000   0.00000   0.00000   0.00000   2.09403
   A11        2.09287  -0.00002   0.00000  -0.00019  -0.00019   2.09268
   A12        2.09629   0.00002   0.00000   0.00018   0.00018   2.09647
   A13        2.09036  -0.00001   0.00000  -0.00008  -0.00008   2.09028
   A14        2.12353   0.00002   0.00000   0.00020   0.00020   2.12372
   A15        2.06930  -0.00001   0.00000  -0.00012  -0.00012   2.06918
   A16        2.09629   0.00003   0.00000   0.00013   0.00013   2.09642
   A17        2.08485  -0.00003   0.00000  -0.00016  -0.00016   2.08469
   A18        2.10204   0.00001   0.00000   0.00004   0.00004   2.10208
   A19        2.17689  -0.00001   0.00000  -0.00002  -0.00002   2.17687
   A20        2.00296   0.00001   0.00000   0.00006   0.00006   2.00303
   A21        2.10333   0.00000   0.00000  -0.00005  -0.00005   2.10329
    D1        0.00000   0.00000   0.00000   0.00000   0.00000   0.00000
    D2        3.14159   0.00000   0.00000   0.00000   0.00000   3.14159
    D3        3.14159   0.00000   0.00000   0.00000   0.00000   3.14159
    D4        0.00000   0.00000   0.00000   0.00000   0.00000   0.00000
    D5        0.00000   0.00000   0.00000   0.00000   0.00000   0.00000
    D6        3.14159   0.00000   0.00000   0.00000   0.00000   3.14159
    D7        3.14159   0.00000   0.00000   0.00000   0.00000   3.14159
    D8        0.00000   0.00000   0.00000   0.00000   0.00000   0.00000
    D9        0.00000   0.00000   0.00000   0.00000   0.00000   0.00000
   D10        3.14159   0.00000   0.00000   0.00000   0.00000   3.14159
   D11        3.14159   0.00000   0.00000   0.00000   0.00000   3.14159
   D12        0.00000   0.00000   0.00000   0.00000   0.00000   0.00000
   D13        0.00000   0.00000   0.00000   0.00000   0.00000   0.00000
   D14        3.14159   0.00000   0.00000   0.00000   0.00000   3.14159
   D15        3.14159   0.00000   0.00000   0.00000   0.00000   3.14159
   D16        0.00000   0.00000   0.00000   0.00000   0.00000   0.00000
   D17        0.00000   0.00000   0.00000   0.00000   0.00000   0.00000
   D18        3.14159   0.00000   0.00000   0.00000   0.00000   3.14159
   D19        3.14159   0.00000   0.00000   0.00000   0.00000   3.14159
   D20        0.00000   0.00000   0.00000   0.00000   0.00000   0.00000
   D21        0.00000   0.00000   0.00000   0.00000   0.00000   0.00000
   D22        3.14159   0.00000   0.00000   0.00000   0.00000   3.14159
   D23        3.14159   0.00000   0.00000   0.00000   0.00000   3.14159
   D24        0.00000   0.00000   0.00000   0.00000   0.00000   0.00000
   D25        3.14159   0.00000   0.00000   0.00000   0.00000   3.14159
   D26        0.00000   0.00000   0.00000   0.00000   0.00000   0.00000
   D27        0.00000   0.00000   0.00000   0.00000   0.00000   0.00000
   D28        3.14159   0.00000   0.00000   0.00000   0.00000   3.14159
         Item               Value     Threshold  Converged?
 Maximum Force            0.000045     0.000450     YES
 RMS     Force            0.000014     0.000300     YES
 Maximum Displacement     0.000315     0.001800     YES
 RMS     Displacement     0.000087     0.001200     YES
 Predicted change in Energy=-2.917968D-08
 Optimization completed.
    -- Stationary point found.
                           ----------------------------
                           !   Optimized Parameters   !
                           ! (Angstroms and Degrees)  !
 --------------------------                            --------------------------
 ! Name  Definition              Value          Derivative Info.                !
 --------------------------------------------------------------------------------
 ! R1    R(1,2)                  1.3878         -DE/DX =    0.0                 !
 ! R2    R(1,6)                  1.3927         -DE/DX =    0.0                 !
 ! R3    R(1,7)                  1.0869         -DE/DX =    0.0                 !
 ! R4    R(2,3)                  1.3896         -DE/DX =    0.0                 !
 ! R5    R(2,8)                  1.0849         -DE/DX =    0.0                 !
 ! R6    R(3,4)                  1.3939         -DE/DX =    0.0                 !
 ! R7    R(3,9)                  1.0855         -DE/DX =    0.0                 !
 ! R8    R(4,5)                  1.3838         -DE/DX =    0.0                 !
 ! R9    R(4,10)                 1.0851         -DE/DX =    0.0                 !
 ! R10   R(5,6)                  1.3954         -DE/DX =    0.0                 !
 ! R11   R(5,11)                 1.0849         -DE/DX =    0.0                 !
 ! R12   R(6,12)                 1.4744         -DE/DX =    0.0                 !
 ! R13   R(12,13)                1.2063         -DE/DX =    0.0                 !
 ! R14   R(12,14)                1.1119         -DE/DX =    0.0                 !
 ! A1    A(2,1,6)              120.1126         -DE/DX =    0.0                 !
 ! A2    A(2,1,7)              120.3966         -DE/DX =    0.0                 !
 ! A3    A(6,1,7)              119.4908         -DE/DX =    0.0                 !
 ! A4    A(1,2,3)              119.6103         -DE/DX =    0.0                 !
 ! A5    A(1,2,8)              120.2504         -DE/DX =    0.0                 !
 ! A6    A(3,2,8)              120.1393         -DE/DX =    0.0                 !
 ! A7    A(2,3,4)              120.4211         -DE/DX =    0.0                 !
 ! A8    A(2,3,9)              119.7925         -DE/DX =    0.0                 !
 ! A9    A(4,3,9)              119.7864         -DE/DX =    0.0                 !
 ! A10   A(3,4,5)              119.9789         -DE/DX =    0.0                 !
 ! A11   A(3,4,10)             119.9125         -DE/DX =    0.0                 !
 ! A12   A(5,4,10)             120.1086         -DE/DX =    0.0                 !
 ! A13   A(4,5,6)              119.7686         -DE/DX =    0.0                 !
 ! A14   A(4,5,11)             121.6691         -DE/DX =    0.0                 !
 ! A15   A(6,5,11)             118.5623         -DE/DX =    0.0                 !
 ! A16   A(1,6,5)              120.1085         -DE/DX =    0.0                 !
 ! A17   A(1,6,12)             119.4533         -DE/DX =    0.0                 !
 ! A18   A(5,6,12)             120.4381         -DE/DX =    0.0                 !
 ! A19   A(6,12,13)            124.7265         -DE/DX =    0.0                 !
 ! A20   A(6,12,14)            114.7613         -DE/DX =    0.0                 !
 ! A21   A(13,12,14)           120.5121         -DE/DX =    0.0                 !
 ! D1    D(6,1,2,3)              0.0            -DE/DX =    0.0                 !
 ! D2    D(6,1,2,8)            180.0            -DE/DX =    0.0                 !
 ! D3    D(7,1,2,3)            180.0            -DE/DX =    0.0                 !
 ! D4    D(7,1,2,8)              0.0            -DE/DX =    0.0                 !
 ! D5    D(2,1,6,5)              0.0            -DE/DX =    0.0                 !
 ! D6    D(2,1,6,12)           180.0            -DE/DX =    0.0                 !
 ! D7    D(7,1,6,5)            180.0            -DE/DX =    0.0                 !
 ! D8    D(7,1,6,12)             0.0            -DE/DX =    0.0                 !
 ! D9    D(1,2,3,4)              0.0            -DE/DX =    0.0                 !
 ! D10   D(1,2,3,9)            180.0            -DE/DX =    0.0                 !
 ! D11   D(8,2,3,4)            180.0            -DE/DX =    0.0                 !
 ! D12   D(8,2,3,9)              0.0            -DE/DX =    0.0                 !
 ! D13   D(2,3,4,5)              0.0            -DE/DX =    0.0                 !
 ! D14   D(2,3,4,10)           180.0            -DE/DX =    0.0                 !
 ! D15   D(9,3,4,5)            180.0            -DE/DX =    0.0                 !
 ! D16   D(9,3,4,10)             0.0            -DE/DX =    0.0                 !
 ! D17   D(3,4,5,6)              0.0            -DE/DX =    0.0                 !
 ! D18   D(3,4,5,11)           180.0            -DE/DX =    0.0                 !
 ! D19   D(10,4,5,6)           180.0            -DE/DX =    0.0                 !
 ! D20   D(10,4,5,11)            0.0            -DE/DX =    0.0                 !
 ! D21   D(4,5,6,1)              0.0            -DE/DX =    0.0                 !
 ! D22   D(4,5,6,12)           180.0            -DE/DX =    0.0                 !
 ! D23   D(11,5,6,1)           180.0            -DE/DX =    0.0                 !
 ! D24   D(11,5,6,12)            0.0            -DE/DX =    0.0                 !
 ! D25   D(1,6,12,13)          180.0            -DE/DX =    0.0                 !
 ! D26   D(1,6,12,14)            0.0            -DE/DX =    0.0                 !
 ! D27   D(5,6,12,13)            0.0            -DE/DX =    0.0                 !
 ! D28   D(5,6,12,14)          180.0            -DE/DX =    0.0                 !
 --------------------------------------------------------------------------------
 GradGradGradGradGradGradGradGradGradGradGradGradGradGradGradGradGradGrad

 1|1|UNPC-DESKTOP-KC5UJLK|Freq|RAPFD|6-311+G(2d,p)|C7H6O1|23122|13-Feb-
 2022|0||#N Geom=AllCheck Guess=TCheck SCRF=Check GenChk RAPFD/6-311+G(
 2d,p) Freq||opt freq(GC)||0,1|C,0.3722001683,1.2806084752,0.|C,1.73835
 72584,1.0363107687,0.|C,2.2015783994,-0.2738386521,0.|C,1.3036246551,-
 1.3399242464,0.|C,-0.0586474409,-1.0965738308,0.|C,-0.5276742341,0.217
 6753141,0.|H,-0.0041445796,2.3002909831,0.|H,2.4413337072,1.8626280383
 ,0.|H,3.2694689089,-0.4683064171,0.|H,1.674392273,-2.3596875126,0.|H,-
 0.7817492251,-1.9053943818,0.|C,-1.9760147104,0.4939021647,0.|O,-2.836
 7772934,-0.3512496853,0.|H,-2.2443099067,1.5728964221,0.||Version=IA32
 W-G09RevD.01|State=1-A'|HF=-345.381824|RMSD=2.535e-009|RMSF=2.806e-005
 |ZeroPoint=0.1098015|Thermal=0.1161458|Dipole=1.2849405,0.467737,0.|Di
 poleDeriv=0.1217101,-0.1369485,0.,0.0815602,0.0496574,0.,0.,0.,-0.1022
 551,-0.0588557,0.1882457,0.,0.1804443,-0.0434348,0.,0.,0.,-0.1400535,0
 .105172,-0.0073722,0.,0.008509,0.0669175,0.,0.,0.,-0.1036924,-0.192105
 9,-0.1524334,0.,-0.1159352,0.0823293,0.,0.,0.,-0.1299991,0.092949,0.11
 93735,0.,-0.1257485,0.0031456,0.,0.,0.,-0.0764987,-0.7564551,0.0803158
 ,0.,0.2581903,-0.1442344,0.,0.,0.,-0.023054,0.055457,0.0723193,0.,0.04
 22838,-0.0445465,0.,0.,0.,0.1341751,0.0001939,-0.0700193,0.,-0.0792771
 ,-0.014904,0.,0.,0.,0.1374903,-0.0726991,0.0267556,0.,0.0275198,0.0715
 752,0.,0.,0.,0.1322876,0.0442712,0.0485787,0.,0.0565943,-0.059124,0.,0
 .,0.,0.1346007,0.0678268,-0.0607542,0.,-0.0330869,0.0350798,0.,0.,0.,0
 .1301927,1.8377291,0.0474693,0.,0.0823054,0.8667671,0.,0.,0.,0.1715823
 ,-1.2481466,-0.1832675,0.,-0.4911575,-0.6167682,0.,0.,0.,-0.3309333,0.
 0029534,0.0277371,0.,0.1077983,-0.2524599,0.,0.,0.,0.0661574|Polar=113
 .9342301,-0.1224821,89.9264153,0.,0.,46.8845161|PG=CS [SG(C7H6O1)]|NIm
 ag=0||0.68756217,-0.02609095,0.72362381,0.,0.,0.13925225,-0.33590518,0
 .06708630,0.,0.70185231,0.00166209,-0.13403018,0.,0.04080703,0.7116247
 3,0.,0.,-0.06395496,0.,0.,0.13259376,-0.00652359,0.03793721,0.,-0.1535
 8324,0.09851571,0.,0.74139216,0.08642281,0.01236258,0.,0.03078476,-0.3
 1686908,0.,-0.01796552,0.66887406,0.,0.,0.00684003,0.,0.,-0.06294474,0
 .,0.,0.13826789,-0.06103786,-0.02057348,0.,0.06315160,-0.04475237,0.,-
 0.21224102,-0.06397410,0.,0.68219715,-0.02030431,-0.00870128,0.,0.0010
 1308,-0.05288993,0.,-0.13177458,-0.24896504,0.,-0.03284148,0.73252306,
 0.,0.,-0.00652674,0.,0.,0.00730610,0.,0.,-0.06318403,0.,0.,0.13408745,
 0.05796455,-0.00069169,0.,-0.03955714,0.03246645,0.,-0.04446108,-0.063
 07931,0.,-0.34579191,0.07220770,0.,0.72556943,-0.04176967,-0.05219641,
 0.,0.03465130,-0.02781036,0.,-0.01680708,0.05225128,0.,0.00695018,-0.1
 3802385,0.,0.03764379,0.69589288,0.,0.,0.00768049,0.,0.,-0.00596884,0.
 ,0.,0.00659132,0.,0.,-0.06313222,0.,0.,0.14033997,-0.20187654,-0.12396
 884,0.,-0.04522023,-0.01329413,0.,-0.00677649,-0.00971879,0.,-0.012628
 42,0.03493245,0.,-0.13851722,0.07751560,0.,0.63310046,-0.07306312,-0.2
 5191270,0.,-0.05727867,0.04619683,0.,-0.00962870,-0.06272774,0.,0.0795
 0663,0.01344106,0.,0.02910363,-0.30228727,0.,0.01200797,0.70992950,0.,
 0.,-0.06407071,0.,0.,0.00932034,0.,0.,-0.00733430,0.,0.,0.00835597,0.,
 0.,-0.06657890,0.,0.,0.13764758,-0.09218445,0.08664193,0.,-0.00505217,
 0.03050513,0.,-0.00581603,0.00010887,0.,-0.00106082,-0.00053687,0.,-0.
 00258014,-0.00322891,0.,0.01201294,-0.01714663,0.,0.09337336,0.0880874
 3,-0.30065903,0.,-0.00024427,-0.00104370,0.,0.00070990,0.00187395,0.,-
 0.00063322,0.00042656,0.,-0.00418212,-0.00193942,0.,0.00899648,-0.0194
 0216,0.,-0.09533108,0.32018171,0.,0.,-0.03696105,0.,0.,0.00381674,0.,0
 .,0.00735012,0.,0.,-0.00092528,0.,0.,0.00636132,0.,0.,0.00314684,0.,0.
 ,0.02534219,-0.01524200,-0.02552808,0.,-0.17654820,-0.13789507,0.,0.01
 084463,0.00970561,0.,0.00029977,0.00268491,0.,-0.00044551,0.00103453,0
 .,-0.00510064,0.00292586,0.,0.00080351,0.00030577,0.,0.18493614,0.0053
 9767,0.00833679,0.,-0.13783778,-0.22153972,0.,-0.02137740,-0.01752996,
 0.,0.00335559,-0.00418227,0.,0.00108494,-0.00021709,0.,0.00173887,0.00
 121829,0.,-0.00037084,0.00073165,0.,0.14828791,0.23307102,0.,0.,0.0027
 8210,0.,0.,-0.03647109,0.,0.,0.00299541,0.,0.,0.00736511,0.,0.,-0.0008
 9945,0.,0.,0.00747146,0.,0.,-0.00389524,0.,0.,0.02531655,0.00128714,0.
 00199321,0.,-0.00619650,-0.00061570,0.,-0.32880962,0.04898205,0.,-0.01
 513603,0.00634814,0.,-0.00079758,-0.00382601,0.,0.00083385,-0.00045904
 ,0.,-0.00037747,-0.00014582,0.,0.00073173,0.00037087,0.,0.34865033,0.0
 0167154,-0.00540281,0.,0.03026427,-0.00016850,0.,0.04889795,-0.0688307
 9,0.,-0.02452052,0.00896025,0.,-0.00342958,-0.00349611,0.,-0.00038784,
 -0.00142911,0.,0.00148825,-0.00016705,0.,-0.00035677,0.00071789,0.,-0.
 05277901,0.06861312,0.,0.,0.00762689,0.,0.,0.00411412,0.,0.,-0.0386314
 2,0.,0.,0.00402351,0.,0.,0.00718569,0.,0.,-0.00102727,0.,0.,-0.0000401
 2,0.,0.,-0.00389690,0.,0.,0.02551231,-0.00119714,-0.00070447,0.,-0.002
 21128,-0.00345111,0.,0.01106402,-0.02051567,0.,-0.09169030,0.08939586,
 0.,-0.00594191,0.03080577,0.,-0.00587515,0.00011910,0.,0.00006563,0.00
 008234,0.,0.00035364,-0.00104822,0.,0.00071935,0.00036254,0.,0.0938970
 2,-0.00073228,0.00053756,0.,-0.00405953,-0.00167514,0.,0.01056624,-0.0
 1784910,0.,0.08926529,-0.30590662,0.,0.00010588,-0.00109993,0.,0.00084
 568,0.00183622,0.,0.00006707,-0.00004584,0.,0.00056248,-0.00091608,0.,
 -0.00038022,0.00071041,0.,-0.09628527,0.32384881,0.,0.,-0.00081286,0.,
 0.,0.00702660,0.,0.,0.00300098,0.,0.,-0.03747245,0.,0.,0.00338941,0.,0
 .,0.00809919,0.,0.,-0.00115173,0.,0.,0.00016386,0.,0.,-0.00364804,0.,0
 .,0.02566336,-0.00029568,0.00262299,0.,-0.00046340,0.00097347,0.,-0.00
 471926,0.00223272,0.,-0.01368657,-0.02356044,0.,-0.18161909,-0.1394741
 8,0.,0.01223040,0.00662670,0.,0.00031703,0.00078442,0.,0.00000560,-0.0
 0007552,0.,-0.00068476,-0.00112395,0.,0.00085462,0.00027475,0.,0.18861
 979,0.00345099,-0.00421945,0.,0.00076714,-0.00001249,0.,0.00211358,0.0
 0080784,0.,0.00602667,0.00938914,0.,-0.13907119,-0.21756982,0.,-0.0204
 1367,-0.01892617,0.,-0.00107123,-0.00094124,0.,-0.00009392,0.00002946,
 0.,0.00043701,0.00031369,0.,-0.00039372,0.00069699,0.,0.15084993,0.229
 12875,0.,0.,0.00627737,0.,0.,-0.00095265,0.,0.,0.00786348,0.,0.,0.0044
 7934,0.,0.,-0.03961653,0.,0.,0.00407753,0.,0.,0.00051765,0.,0.,-0.0011
 7173,0.,0.,-0.00018802,0.,0.,-0.00422919,0.,0.,0.02669207,-0.03274613,
 -0.01201416,0.,0.00365927,-0.00437044,0.,0.00016884,-0.00159409,0.,0.0
 0813297,0.00207104,0.,-0.02084945,0.02493502,0.,-0.18645153,0.03326176
 ,0.,0.00034304,0.00386288,0.,0.00060497,0.00040638,0.,-0.00007283,-0.0
 0005455,0.,0.00073258,-0.00059507,0.,0.00007857,-0.00343029,0.,0.72692
 791,-0.02925575,0.00804753,0.,-0.00667263,-0.00384028,0.,-0.00204419,-
 0.00498197,0.,0.00598430,-0.00701781,0.,0.03225721,0.00384572,0.,0.061
 64665,-0.12622603,0.,-0.00360825,-0.00021863,0.,-0.00164567,0.00034041
 ,0.,-0.00000886,-0.00017735,0.,0.00192738,-0.00028606,0.,0.00040102,-0
 .00156775,0.,0.19790662,0.80492454,0.,0.,-0.00017482,0.,0.,0.00887703,
 0.,0.,-0.00119667,0.,0.,0.00747102,0.,0.,0.00275640,0.,0.,-0.07552984,
 0.,0.,-0.00457612,0.,0.,0.00052413,0.,0.,-0.00135158,0.,0.,0.00022040,
 0.,0.,-0.00393852,0.,0.,0.18864205,-0.00088084,0.01075799,0.,-0.003852
 23,0.00007047,0.,-0.00066756,-0.00116109,0.,-0.00090883,-0.00161648,0.
 ,0.00309966,-0.00760163,0.,-0.05005286,-0.03442407,0.,0.00067344,-0.00
 083799,0.,-0.00115495,0.00006334,0.,-0.00012909,0.00005880,0.,-0.00022
 764,0.00027426,0.,-0.00070469,0.00076200,0.,-0.41635067,-0.32169327,0.
 ,0.45997835,0.00514104,0.00362617,0.,0.00005170,0.00172025,0.,0.000790
 63,0.00125994,0.,-0.00345053,0.00140682,0.,0.00392448,-0.00857678,0.,-
 0.03075351,0.01880941,0.,0.00156247,0.00048347,0.,-0.00012294,-0.00006
 901,0.,0.00006941,0.00027149,0.,-0.00051720,0.00017677,0.,-0.00002805,
 0.00265241,0.,-0.31582702,-0.43731246,0.,0.37596305,0.45782434,0.,0.,0
 .00324520,0.,0.,-0.00223245,0.,0.,0.00004561,0.,0.,-0.00090845,0.,0.,-
 0.00028331,0.,0.,0.01876627,0.,0.,0.00086538,0.,0.,-0.00033149,0.,0.,0
 .00032118,0.,0.,0.00013973,0.,0.,-0.00009990,0.,0.,-0.06256293,0.,0.,0
 .02355455,0.00107555,0.00253204,0.,-0.00007361,-0.00062155,0.,0.000128
 25,-0.00022825,0.,0.00040028,0.00198099,0.,-0.00607261,-0.00082869,0.,
 -0.00567856,0.02844860,0.,-0.00051787,-0.00145471,0.,-0.00008869,0.000
 00420,0.,-0.00001852,-0.00009113,0.,-0.00054343,0.00009072,0.,0.000067
 43,0.00006671,0.,-0.08417754,0.06480545,0.,0.01117792,-0.03680352,0.,0
 .08432138,-0.00061750,0.00058743,0.,0.00066731,0.00033756,0.,0.0000662
 4,0.00032402,0.,-0.00034293,-0.00046009,0.,0.00165981,0.00122717,0.,0.
 00085309,-0.00852013,0.,0.00092012,0.00071974,0.,0.00013538,0.00000862
 ,0.,0.00001397,0.00008489,0.,0.00022266,-0.00002800,0.,-0.00050383,0.0
 0021864,0.,0.07544193,-0.23552986,0.,-0.02061538,-0.04227283,0.,-0.057
 90085,0.28330283,0.,0.,-0.00120320,0.,0.,-0.00052998,0.,0.,0.00033634,
 0.,0.,-0.00093932,0.,0.,0.00217465,0.,0.,0.01765586,0.,0.,0.00014931,0
 .,0.,0.00004729,0.,0.,-0.00000034,0.,0.,-0.00038926,0.,0.,0.00028912,0
 .,0.,-0.05916054,0.,0.,0.01948062,0.,0.,0.02208947||0.00008856,-0.0000
 1794,0.,-0.00005978,0.00004465,0.,-0.00001203,-0.00008259,0.,0.0000791
 6,0.00002681,0.,-0.00004109,0.00002182,0.,-0.00002227,0.00002018,0.,-0
 .00000299,0.00000651,0.,-0.00000002,-0.00000121,0.,0.00000125,0.000007
 41,0.,-0.00001681,-0.00000803,0.,0.00000962,-0.00000824,0.,-0.00001354
 ,-0.00002523,0.,-0.00001270,-0.00000919,0.,0.00000262,0.00002504,0.|||
 @


 ERWIN WITH HIS PSI CAN DO
 CALCULATIONS QUITE A FEW.
 BUT ONE THING HAS NOT BEEN SEEN
 JUST WHAT DOES PSI REALLY MEAN.
 -- WALTER HUCKEL, TRANS. BY FELIX BLOCH
 Job cpu time:       0 days  0 hours 43 minutes 19.0 seconds.
 File lengths (MBytes):  RWF=     88 Int=      0 D2E=      0 Chk=      6 Scr=      1
 Normal termination of Gaussian 09 at Sun Feb 13 10:27:18 2022.
