 Entering Link 1 = C:\G09W\l1.exe PID=      6284.
  
 Copyright (c) 1988,1990,1992,1993,1995,1998,2003,2009,2013,
            Gaussian, Inc.  All Rights Reserved.
  
 This is part of the Gaussian(R) 09 program.  It is based on
 the Gaussian(R) 03 system (copyright 2003, Gaussian, Inc.),
 the Gaussian(R) 98 system (copyright 1998, Gaussian, Inc.),
 the Gaussian(R) 94 system (copyright 1995, Gaussian, Inc.),
 the Gaussian 92(TM) system (copyright 1992, Gaussian, Inc.),
 the Gaussian 90(TM) system (copyright 1990, Gaussian, Inc.),
 the Gaussian 88(TM) system (copyright 1988, Gaussian, Inc.),
 the Gaussian 86(TM) system (copyright 1986, Carnegie Mellon
 University), and the Gaussian 82(TM) system (copyright 1983,
 Carnegie Mellon University). Gaussian is a federally registered
 trademark of Gaussian, Inc.
  
 This software contains proprietary and confidential information,
 including trade secrets, belonging to Gaussian, Inc.
  
 This software is provided under written license and may be
 used, copied, transmitted, or stored only in accord with that
 written license.
  
 The following legend is applicable only to US Government
 contracts under FAR:
  
                    RESTRICTED RIGHTS LEGEND
  
 Use, reproduction and disclosure by the US Government is
 subject to restrictions as set forth in subparagraphs (a)
 and (c) of the Commercial Computer Software - Restricted
 Rights clause in FAR 52.227-19.
  
 Gaussian, Inc.
 340 Quinnipiac St., Bldg. 40, Wallingford CT 06492
  
  
 ---------------------------------------------------------------
 Warning -- This program may not be used in any manner that
 competes with the business of Gaussian, Inc. or will provide
 assistance to any competitor of Gaussian, Inc.  The licensee
 of this program is prohibited from giving any competitor of
 Gaussian, Inc. access to this program.  By using this program,
 the user acknowledges that Gaussian, Inc. is engaged in the
 business of creating and licensing software in the field of
 computational chemistry and represents and warrants to the
 licensee that it is not a competitor of Gaussian, Inc. and that
 it will not use this program in any manner prohibited above.
 ---------------------------------------------------------------
  

 Cite this work as:
 Gaussian 09, Revision D.01,
 M. J. Frisch, G. W. Trucks, H. B. Schlegel, G. E. Scuseria, 
 M. A. Robb, J. R. Cheeseman, G. Scalmani, V. Barone, B. Mennucci, 
 G. A. Petersson, H. Nakatsuji, M. Caricato, X. Li, H. P. Hratchian, 
 A. F. Izmaylov, J. Bloino, G. Zheng, J. L. Sonnenberg, M. Hada, 
 M. Ehara, K. Toyota, R. Fukuda, J. Hasegawa, M. Ishida, T. Nakajima, 
 Y. Honda, O. Kitao, H. Nakai, T. Vreven, J. A. Montgomery, Jr., 
 J. E. Peralta, F. Ogliaro, M. Bearpark, J. J. Heyd, E. Brothers, 
 K. N. Kudin, V. N. Staroverov, T. Keith, R. Kobayashi, J. Normand, 
 K. Raghavachari, A. Rendell, J. C. Burant, S. S. Iyengar, J. Tomasi, 
 M. Cossi, N. Rega, J. M. Millam, M. Klene, J. E. Knox, J. B. Cross, 
 V. Bakken, C. Adamo, J. Jaramillo, R. Gomperts, R. E. Stratmann, 
 O. Yazyev, A. J. Austin, R. Cammi, C. Pomelli, J. W. Ochterski, 
 R. L. Martin, K. Morokuma, V. G. Zakrzewski, G. A. Voth, 
 P. Salvador, J. J. Dannenberg, S. Dapprich, A. D. Daniels, 
 O. Farkas, J. B. Foresman, J. V. Ortiz, J. Cioslowski, 
 and D. J. Fox, Gaussian, Inc., Wallingford CT, 2013.
 
 ******************************************
 Gaussian 09:  IA32W-G09RevD.01 24-Apr-2013
                15-Mar-2022 
 ******************************************
 %chk=D:\mindmap\gaussian\calculate\opt_freq\gly\gly.chk
 %nprocshared=4
 Will use up to    4 processors via shared memory.
 %mem=1GB
 -------------------
 # opt freq HF/3-21G
 -------------------
 1/18=20,19=15,38=1/1,3;
 2/9=110,12=2,17=6,18=5,40=1/2;
 3/5=5,11=9,16=1,25=1,30=1,71=1/1,2,3;
 4//1;
 5/5=2,38=5/2;
 6/7=2,8=2,9=2,10=2,28=1/1;
 7//1,2,3,16;
 1/18=20,19=15/3(2);
 2/9=110/2;
 99//99;
 2/9=110/2;
 3/5=5,11=9,16=1,25=1,30=1,71=1/1,2,3;
 4/5=5,16=3,69=1/1;
 5/5=2,38=5/2;
 7//1,2,3,16;
 1/18=20,19=15/3(-5);
 2/9=110/2;
 6/7=2,8=2,9=2,10=2,19=2,28=1/1;
 99/9=1/99;
 ------------
 opt freq(GC)
 ------------
 Symbolic Z-matrix:
 Charge =  0 Multiplicity = 1
 C                     0.92919  -0.8582    1.79523 
 O                     2.09754  -1.09355   1.97912 
 O                    -0.02457  -1.81429   2.05323 
 H                     0.36004  -2.6547    2.42254 
 C                     0.26177   0.37914   1.23881 
 H                    -0.41384   0.82904   2.01153 
 N                     1.31908   1.37203   0.9117 
 H                     1.95353   0.98815   0.21714 
 H                     1.86809   1.59892   1.74028 
 C                    -0.63428  -0.04102   0.05891 
 H                    -0.03503  -0.50485  -0.69652 
 O                    -1.27795   1.11397  -0.48569 
 H                    -1.90773   0.84292  -1.15763 
 C                    -1.69959  -1.03743   0.55274 
 C                    -3.05449  -0.73004   0.42533 
 C                    -1.30999  -2.24725   1.12729 
 C                    -4.01949  -1.63202   0.87301 
 H                    -3.3613    0.22418  -0.02697 
 C                    -2.27517  -3.15005   1.57425 
 H                    -0.24216  -2.48976   1.22762 
 C                    -3.62975  -2.84259   1.44734 
 H                    -5.08744  -1.38953   0.77319 
 H                    -1.96769  -4.10404   2.02684 
 H                    -4.3908   -3.55364   1.80019 
 

 GradGradGradGradGradGradGradGradGradGradGradGradGradGradGradGradGradGrad
 Berny optimization.
 Initialization pass.
                           ----------------------------
                           !    Initial Parameters    !
                           ! (Angstroms and Degrees)  !
 --------------------------                            --------------------------
 ! Name  Definition              Value          Derivative Info.                !
 --------------------------------------------------------------------------------
 ! R1    R(1,2)                  1.2059         estimate D2E/DX2                !
 ! R2    R(1,3)                  1.3749         estimate D2E/DX2                !
 ! R3    R(1,5)                  1.512          estimate D2E/DX2                !
 ! R4    R(3,4)                  0.9953         estimate D2E/DX2                !
 ! R5    R(3,16)                 1.6423         estimate D2E/DX2                !
 ! R6    R(3,20)                 1.0887         estimate D2E/DX2                !
 ! R7    R(5,6)                  1.1207         estimate D2E/DX2                !
 ! R8    R(5,7)                  1.4869         estimate D2E/DX2                !
 ! R9    R(5,10)                 1.54           estimate D2E/DX2                !
 ! R10   R(7,8)                  1.016          estimate D2E/DX2                !
 ! R11   R(7,9)                  1.0195         estimate D2E/DX2                !
 ! R12   R(10,11)                1.07           estimate D2E/DX2                !
 ! R13   R(10,12)                1.43           estimate D2E/DX2                !
 ! R14   R(10,14)                1.54           estimate D2E/DX2                !
 ! R15   R(12,13)                0.96           estimate D2E/DX2                !
 ! R16   R(14,15)                1.3952         estimate D2E/DX2                !
 ! R17   R(14,16)                1.3948         estimate D2E/DX2                !
 ! R18   R(15,17)                1.3947         estimate D2E/DX2                !
 ! R19   R(15,18)                1.0997         estimate D2E/DX2                !
 ! R20   R(16,19)                1.3951         estimate D2E/DX2                !
 ! R21   R(16,20)                1.0996         estimate D2E/DX2                !
 ! R22   R(17,21)                1.3954         estimate D2E/DX2                !
 ! R23   R(17,22)                1.0997         estimate D2E/DX2                !
 ! R24   R(19,21)                1.3948         estimate D2E/DX2                !
 ! R25   R(19,23)                1.0998         estimate D2E/DX2                !
 ! R26   R(21,24)                1.0997         estimate D2E/DX2                !
 ! A1    A(2,1,3)              120.5141         estimate D2E/DX2                !
 ! A2    A(2,1,5)              130.0537         estimate D2E/DX2                !
 ! A3    A(3,1,5)              109.3857         estimate D2E/DX2                !
 ! A4    A(1,3,4)              112.8764         estimate D2E/DX2                !
 ! A5    A(1,3,16)             128.3514         estimate D2E/DX2                !
 ! A6    A(1,3,20)             115.3277         estimate D2E/DX2                !
 ! A7    A(4,3,16)             106.802          estimate D2E/DX2                !
 ! A8    A(4,3,20)              80.4878         estimate D2E/DX2                !
 ! A9    A(1,5,6)              109.9319         estimate D2E/DX2                !
 ! A10   A(1,5,7)              108.2731         estimate D2E/DX2                !
 ! A11   A(1,5,10)             108.393          estimate D2E/DX2                !
 ! A12   A(6,5,7)              108.1979         estimate D2E/DX2                !
 ! A13   A(6,5,10)             106.6805         estimate D2E/DX2                !
 ! A14   A(7,5,10)             115.3014         estimate D2E/DX2                !
 ! A15   A(5,7,8)              110.0073         estimate D2E/DX2                !
 ! A16   A(5,7,9)              110.6547         estimate D2E/DX2                !
 ! A17   A(8,7,9)              107.6614         estimate D2E/DX2                !
 ! A18   A(5,10,11)            109.4712         estimate D2E/DX2                !
 ! A19   A(5,10,12)            109.4712         estimate D2E/DX2                !
 ! A20   A(5,10,14)            109.4712         estimate D2E/DX2                !
 ! A21   A(11,10,12)           109.4712         estimate D2E/DX2                !
 ! A22   A(11,10,14)           109.4712         estimate D2E/DX2                !
 ! A23   A(12,10,14)           109.4713         estimate D2E/DX2                !
 ! A24   A(10,12,13)           109.5            estimate D2E/DX2                !
 ! A25   A(10,14,15)           119.9972         estimate D2E/DX2                !
 ! A26   A(10,14,16)           120.0043         estimate D2E/DX2                !
 ! A27   A(15,14,16)           119.9985         estimate D2E/DX2                !
 ! A28   A(14,15,17)           120.0086         estimate D2E/DX2                !
 ! A29   A(14,15,18)           119.9808         estimate D2E/DX2                !
 ! A30   A(17,15,18)           120.0106         estimate D2E/DX2                !
 ! A31   A(3,16,14)            102.8385         estimate D2E/DX2                !
 ! A32   A(3,16,19)            122.1034         estimate D2E/DX2                !
 ! A33   A(14,16,19)           120.0            estimate D2E/DX2                !
 ! A34   A(14,16,20)           120.008          estimate D2E/DX2                !
 ! A35   A(19,16,20)           119.992          estimate D2E/DX2                !
 ! A36   A(15,17,21)           119.9942         estimate D2E/DX2                !
 ! A37   A(15,17,22)           120.0128         estimate D2E/DX2                !
 ! A38   A(21,17,22)           119.993          estimate D2E/DX2                !
 ! A39   A(16,19,21)           120.0047         estimate D2E/DX2                !
 ! A40   A(16,19,23)           119.984          estimate D2E/DX2                !
 ! A41   A(21,19,23)           120.0113         estimate D2E/DX2                !
 ! A42   A(17,21,19)           119.994          estimate D2E/DX2                !
 ! A43   A(17,21,24)           119.9811         estimate D2E/DX2                !
 ! A44   A(19,21,24)           120.0249         estimate D2E/DX2                !
 ! D1    D(2,1,3,4)              2.208          estimate D2E/DX2                !
 ! D2    D(2,1,3,16)          -135.0069         estimate D2E/DX2                !
 ! D3    D(2,1,3,20)           -87.864          estimate D2E/DX2                !
 ! D4    D(5,1,3,4)            179.9668         estimate D2E/DX2                !
 ! D5    D(5,1,3,16)            42.752          estimate D2E/DX2                !
 ! D6    D(5,1,3,20)            89.8949         estimate D2E/DX2                !
 ! D7    D(2,1,5,6)           -118.007          estimate D2E/DX2                !
 ! D8    D(2,1,5,7)              0.0            estimate D2E/DX2                !
 ! D9    D(2,1,5,10)           125.7396         estimate D2E/DX2                !
 ! D10   D(3,1,5,6)             64.5156         estimate D2E/DX2                !
 ! D11   D(3,1,5,7)           -177.4775         estimate D2E/DX2                !
 ! D12   D(3,1,5,10)           -51.7378         estimate D2E/DX2                !
 ! D13   D(1,3,16,14)          -35.231          estimate D2E/DX2                !
 ! D14   D(1,3,16,19)         -173.6806         estimate D2E/DX2                !
 ! D15   D(4,3,16,14)         -174.4074         estimate D2E/DX2                !
 ! D16   D(4,3,16,19)           47.1431         estimate D2E/DX2                !
 ! D17   D(1,5,7,8)             60.4135         estimate D2E/DX2                !
 ! D18   D(1,5,7,9)            -58.4232         estimate D2E/DX2                !
 ! D19   D(6,5,7,8)            179.5216         estimate D2E/DX2                !
 ! D20   D(6,5,7,9)             60.6848         estimate D2E/DX2                !
 ! D21   D(10,5,7,8)           -61.1633         estimate D2E/DX2                !
 ! D22   D(10,5,7,9)           180.0            estimate D2E/DX2                !
 ! D23   D(1,5,10,11)          -60.0            estimate D2E/DX2                !
 ! D24   D(1,5,10,12)          180.0            estimate D2E/DX2                !
 ! D25   D(1,5,10,14)           60.0            estimate D2E/DX2                !
 ! D26   D(6,5,10,11)         -178.3382         estimate D2E/DX2                !
 ! D27   D(6,5,10,12)           61.6618         estimate D2E/DX2                !
 ! D28   D(6,5,10,14)          -58.3382         estimate D2E/DX2                !
 ! D29   D(7,5,10,11)           61.5121         estimate D2E/DX2                !
 ! D30   D(7,5,10,12)          -58.4879         estimate D2E/DX2                !
 ! D31   D(7,5,10,14)         -178.4879         estimate D2E/DX2                !
 ! D32   D(5,10,12,13)        -173.9257         estimate D2E/DX2                !
 ! D33   D(11,10,12,13)         66.0743         estimate D2E/DX2                !
 ! D34   D(14,10,12,13)        -53.9257         estimate D2E/DX2                !
 ! D35   D(5,10,14,15)         120.0            estimate D2E/DX2                !
 ! D36   D(5,10,14,16)         -60.0053         estimate D2E/DX2                !
 ! D37   D(11,10,14,15)       -120.0            estimate D2E/DX2                !
 ! D38   D(11,10,14,16)         59.9947         estimate D2E/DX2                !
 ! D39   D(12,10,14,15)          0.0            estimate D2E/DX2                !
 ! D40   D(12,10,14,16)        179.9947         estimate D2E/DX2                !
 ! D41   D(10,14,15,17)       -179.9729         estimate D2E/DX2                !
 ! D42   D(10,14,15,18)         -0.052          estimate D2E/DX2                !
 ! D43   D(16,14,15,17)          0.0323         estimate D2E/DX2                !
 ! D44   D(16,14,15,18)        179.9532         estimate D2E/DX2                !
 ! D45   D(10,14,16,3)          40.4697         estimate D2E/DX2                !
 ! D46   D(10,14,16,19)       -179.9798         estimate D2E/DX2                !
 ! D47   D(10,14,16,20)         -0.0055         estimate D2E/DX2                !
 ! D48   D(15,14,16,3)        -139.5356         estimate D2E/DX2                !
 ! D49   D(15,14,16,19)          0.0149         estimate D2E/DX2                !
 ! D50   D(15,14,16,20)        179.9892         estimate D2E/DX2                !
 ! D51   D(14,15,17,21)         -0.0568         estimate D2E/DX2                !
 ! D52   D(14,15,17,22)        179.9619         estimate D2E/DX2                !
 ! D53   D(18,15,17,21)       -179.9777         estimate D2E/DX2                !
 ! D54   D(18,15,17,22)          0.041          estimate D2E/DX2                !
 ! D55   D(3,16,19,21)         131.6534         estimate D2E/DX2                !
 ! D56   D(3,16,19,23)         -48.334          estimate D2E/DX2                !
 ! D57   D(14,16,19,21)         -0.0376         estimate D2E/DX2                !
 ! D58   D(14,16,19,23)        179.975          estimate D2E/DX2                !
 ! D59   D(20,16,19,21)        179.9881         estimate D2E/DX2                !
 ! D60   D(20,16,19,23)          0.0007         estimate D2E/DX2                !
 ! D61   D(15,17,21,19)          0.0341         estimate D2E/DX2                !
 ! D62   D(15,17,21,24)       -179.9964         estimate D2E/DX2                !
 ! D63   D(22,17,21,19)       -179.9846         estimate D2E/DX2                !
 ! D64   D(22,17,21,24)         -0.0151         estimate D2E/DX2                !
 ! D65   D(16,19,21,17)          0.0131         estimate D2E/DX2                !
 ! D66   D(16,19,21,24)       -179.9563         estimate D2E/DX2                !
 ! D67   D(23,19,21,17)       -179.9995         estimate D2E/DX2                !
 ! D68   D(23,19,21,24)          0.031          estimate D2E/DX2                !
 --------------------------------------------------------------------------------
 Trust Radius=3.00D-01 FncErr=1.00D-07 GrdErr=1.00D-07
 Number of steps in this run=    144 maximum allowed number of steps=    144.
 GradGradGradGradGradGradGradGradGradGradGradGradGradGradGradGradGradGrad

                          Input orientation:                          
 ---------------------------------------------------------------------
 Center     Atomic      Atomic             Coordinates (Angstroms)
 Number     Number       Type             X           Y           Z
 ---------------------------------------------------------------------
      1          6           0        0.929188   -0.858195    1.795234
      2          8           0        2.097540   -1.093551    1.979123
      3          8           0       -0.024571   -1.814294    2.053227
      4          1           0        0.360041   -2.654704    2.422543
      5          6           0        0.261767    0.379137    1.238812
      6          1           0       -0.413842    0.829042    2.011525
      7          7           0        1.319077    1.372027    0.911696
      8          1           0        1.953526    0.988150    0.217141
      9          1           0        1.868093    1.598915    1.740281
     10          6           0       -0.634276   -0.041016    0.058906
     11          1           0       -0.035035   -0.504849   -0.696521
     12          8           0       -1.277953    1.113970   -0.485693
     13          1           0       -1.907734    0.842916   -1.157634
     14          6           0       -1.699588   -1.037429    0.552741
     15          6           0       -3.054486   -0.730038    0.425333
     16          6           0       -1.309986   -2.247245    1.127286
     17          6           0       -4.019487   -1.632025    0.873011
     18          1           0       -3.361305    0.224177   -0.026971
     19          6           0       -2.275169   -3.150047    1.574254
     20          1           0       -0.242160   -2.489755    1.227618
     21          6           0       -3.629754   -2.842591    1.447341
     22          1           0       -5.087442   -1.389531    0.773193
     23          1           0       -1.967694   -4.104037    2.026842
     24          1           0       -4.390803   -3.553643    1.800194
 ---------------------------------------------------------------------
                    Distance matrix (angstroms):
                    1          2          3          4          5
     1  C    0.000000
     2  O    1.205925   0.000000
     3  O    1.374897   2.242391   0.000000
     4  H    1.986174   2.377546   0.995294   0.000000
     5  C    1.511968   2.467171   2.357202   3.258077   0.000000
     6  H    2.167321   3.162982   2.672171   3.592258   1.120691
     7  N    2.430339   2.797228   3.641583   4.406470   1.486856
     8  H    2.636028   2.731081   3.890729   4.546799   2.068032
     9  H    2.630961   2.712760   3.915368   4.564316   2.078368
    10  C    2.475286   3.501126   2.737439   3.661531   1.540000
    11  H    2.695074   3.471818   3.045632   3.808743   2.148263
    12  O    3.736781   4.726777   4.073304   5.034259   2.425826
    13  H    4.434111   5.443471   4.573477   5.494890   3.265697
    14  C    2.913139   4.056587   2.379215   3.217734   2.514809
    15  C    4.214584   5.393495   3.606389   4.399112   3.590202
    16  C    2.718366   3.697009   1.642287   2.152372   3.062797
    17  C    5.093004   6.239508   4.169590   4.756804   4.744229
    18  H    4.785425   5.963205   4.429038   5.304384   3.840946
    19  C    3.945798   4.849091   2.660610   2.812346   4.359324
    20  H    2.087159   2.826366   1.088680   1.348221   2.912835
    21  C    4.984256   6.011974   3.797610   4.111543   5.056377
    22  H    6.125906   7.291492   5.239426   5.830617   5.653232
    23  H    4.356726   5.058798   3.003223   2.770469   5.068564
    24  H    5.963872   6.941374   4.706734   4.875031   6.117869
                    6          7          8          9         10
     6  H    0.000000
     7  N    2.123079   0.000000
     8  H    2.974821   1.016019   0.000000
     9  H    2.423531   1.019534   1.643256   0.000000
    10  C    2.149027   2.557251   2.789434   3.431945   0.000000
    11  H    3.042412   2.818270   2.649188   3.739749   1.070000
    12  O    2.657813   2.960381   3.309420   3.884293   1.430000
    13  H    3.503638   3.869677   4.101271   4.819369   1.970533
    14  C    2.695350   3.879004   4.190566   4.592266   1.540000
    15  C    3.452498   4.876811   5.298651   5.602223   2.542919
    16  C    3.323928   4.478570   4.684726   5.026818   2.542728
    17  C    4.511512   6.125854   6.555331   6.771611   3.828019
    18  H    3.634401   4.909647   5.375004   5.688558   2.741238
    19  C    4.414623   5.814357   6.070280   6.304509   3.828169
    20  H    3.414440   4.177396   4.235319   4.629602   2.741526
    21  C    4.913378   6.522335   6.881932   7.073833   4.330065
    22  H    5.319594   6.977742   7.452369   7.631877   4.707376
    23  H    5.172037   6.483340   6.676927   6.878884   4.707326
    24  H    5.921893   7.593049   7.961436   8.107172   5.429745
                   11         12         13         14         15
    11  H    0.000000
    12  O    2.051796   0.000000
    13  H    2.352891   0.960000   0.000000
    14  C    2.148263   2.425827   2.550373   0.000000
    15  C    3.228987   2.717794   2.508985   1.395160   0.000000
    16  C    2.826255   3.728336   3.889377   1.394829   2.416183
    17  C    4.428297   4.111274   3.835146   2.416205   1.394712
    18  H    3.470425   2.311388   1.942705   2.165414   1.099655
    19  C    4.143874   4.839386   4.852007   2.416183   2.789946
    20  H    2.772195   4.122515   4.423829   2.165365   3.413128
    21  C    4.794079   4.992190   4.830549   2.790065   2.416260
    22  H    5.335686   4.729114   4.338485   3.413229   2.165375
    23  H    4.909790   5.832338   5.883606   3.413055   3.889707
    24  H    5.873794   6.058195   5.851846   3.889745   3.413024
                   16         17         18         19         20
    16  C    0.000000
    17  C    2.790080   0.000000
    18  H    3.412938   2.165330   0.000000
    19  C    1.395138   2.416356   3.889601   0.000000
    20  H    1.099604   3.889684   4.320704   2.165471   0.000000
    21  C    2.416236   1.395427   3.413316   1.394825   3.412999
    22  H    3.889760   1.099680   2.494768   3.413209   4.989364
    23  H    2.165516   3.413506   4.989362   1.099761   2.494420
    24  H    3.413344   2.165678   4.320917   2.165606   4.320988
                   21         22         23         24
    21  C    0.000000
    22  H    2.165806   0.000000
    23  H    2.165528   4.321228   0.000000
    24  H    1.099680   2.494678   2.495147   0.000000
 Stoichiometry    C9H11NO3
 Framework group  C1[X(C9H11NO3)]
 Deg. of freedom    66
 Full point group                 C1      NOp   1
 Largest Abelian subgroup         C1      NOp   1
 Largest concise Abelian subgroup C1      NOp   1
                         Standard orientation:                         
 ---------------------------------------------------------------------
 Center     Atomic      Atomic             Coordinates (Angstroms)
 Number     Number       Type             X           Y           Z
 ---------------------------------------------------------------------
      1          6           0       -1.697266   -1.080467   -0.147297
      2          8           0       -2.621743   -1.803402    0.130122
      3          8           0       -0.413677   -1.571733   -0.184662
      4          1           0       -0.367696   -2.548542    0.000647
      5          6           0       -1.675413    0.403243   -0.437424
      6          1           0       -1.314958    0.582751   -1.483271
      7          7           0       -3.065557    0.919741   -0.330315
      8          1           0       -3.423179    0.763382    0.607742
      9          1           0       -3.681174    0.433051   -0.981160
     10          6           0       -0.652327    1.067205    0.502815
     11          1           0       -0.939417    0.897161    1.519459
     12          8           0       -0.612952    2.473676    0.247497
     13          1           0        0.089995    2.873692    0.764654
     14          6           0        0.741552    0.461240    0.254806
     15          6           0        1.794835    1.279169   -0.155141
     16          6           0        0.951087   -0.905255    0.440105
     17          6           0        3.057170    0.730529   -0.380367
     18          1           0        1.629128    2.356319   -0.301881
     19          6           0        2.213988   -1.454054    0.215805
     20          1           0        0.121090   -1.550027    0.763376
     21          6           0        3.266950   -0.636462   -0.194503
     22          1           0        3.887274    1.375061   -0.704099
     23          1           0        2.379002   -2.531439    0.362383
     24          1           0        4.262357   -1.068809   -0.372090
 ---------------------------------------------------------------------
 Rotational constants (GHZ):      1.4166477      0.6546239      0.4667316
 Standard basis: 3-21G (6D, 7F)
 There are   139 symmetry adapted cartesian basis functions of A   symmetry.
 There are   139 symmetry adapted basis functions of A   symmetry.
   139 basis functions,   228 primitive gaussians,   139 cartesian basis functions
    48 alpha electrons       48 beta electrons
       nuclear repulsion energy       825.3661659360 Hartrees.
 NAtoms=   24 NActive=   24 NUniq=   24 SFac= 1.00D+00 NAtFMM=   60 NAOKFM=F Big=F
 Integral buffers will be    262144 words long.
 Raffenetti 1 integral format.
 Two-electron integral symmetry is turned on.
 One-electron integrals computed using PRISM.
 NBasis=   139 RedAO= T EigKep=  1.58D-03  NBF=   139
 NBsUse=   139 1.00D-06 EigRej= -1.00D+00 NBFU=   139
 ExpMin= 1.83D-01 ExpMax= 3.22D+02 ExpMxC= 3.22D+02 IAcc=1 IRadAn=         1 AccDes= 0.00D+00
 Harris functional with IExCor=  205 and IRadAn=       1 diagonalized for initial guess.
 HarFok:  IExCor=  205 AccDes= 0.00D+00 IRadAn=         1 IDoV= 1 UseB2=F ITyADJ=14
 ICtDFT=  3500011 ScaDFX=  1.000000  1.000000  1.000000  1.000000
 FoFCou: FMM=F IPFlag=           0 FMFlag=      100000 FMFlg1=           0
         NFxFlg=           0 DoJE=T BraDBF=F KetDBF=T FulRan=T
         wScrn=  0.000000 ICntrl=     500 IOpCl=  0 I1Cent=   200000004 NGrid=           0
         NMat0=    1 NMatS0=      1 NMatT0=    0 NMatD0=    1 NMtDS0=    0 NMtDT0=    0
 Petite list used in FoFCou.
 Keep R1 ints in memory in canonical form, NReq=48781641.
 Requested convergence on RMS density matrix=1.00D-08 within 128 cycles.
 Requested convergence on MAX density matrix=1.00D-06.
 Requested convergence on             energy=1.00D-06.
 No special actions if energy rises.
 SCF Done:  E(RHF) =  -622.440061613     A.U. after   16 cycles
            NFock= 16  Conv=0.62D-08     -V/T= 2.0007

 **********************************************************************

            Population analysis using the SCF density.

 **********************************************************************

 Orbital symmetries:
       Occupied  (A) (A) (A) (A) (A) (A) (A) (A) (A) (A) (A) (A)
                 (A) (A) (A) (A) (A) (A) (A) (A) (A) (A) (A) (A)
                 (A) (A) (A) (A) (A) (A) (A) (A) (A) (A) (A) (A)
                 (A) (A) (A) (A) (A) (A) (A) (A) (A) (A) (A) (A)
       Virtual   (A) (A) (A) (A) (A) (A) (A) (A) (A) (A) (A) (A)
                 (A) (A) (A) (A) (A) (A) (A) (A) (A) (A) (A) (A)
                 (A) (A) (A) (A) (A) (A) (A) (A) (A) (A) (A) (A)
                 (A) (A) (A) (A) (A) (A) (A) (A) (A) (A) (A) (A)
                 (A) (A) (A) (A) (A) (A) (A) (A) (A) (A) (A) (A)
                 (A) (A) (A) (A) (A) (A) (A) (A) (A) (A) (A) (A)
                 (A) (A) (A) (A) (A) (A) (A) (A) (A) (A) (A) (A)
                 (A) (A) (A) (A) (A) (A) (A)
 The electronic state is 1-A.
 Alpha  occ. eigenvalues --  -20.59279 -20.51293 -20.45222 -15.47973 -11.38451
 Alpha  occ. eigenvalues --  -11.25183 -11.25127 -11.17518 -11.17402 -11.17085
 Alpha  occ. eigenvalues --  -11.16253 -11.14829 -11.14734  -1.58984  -1.45374
 Alpha  occ. eigenvalues --   -1.36511  -1.20641  -1.14346  -1.06679  -1.03843
 Alpha  occ. eigenvalues --   -0.99325  -0.92295  -0.89628  -0.85092  -0.78673
 Alpha  occ. eigenvalues --   -0.76945  -0.75418  -0.73711  -0.69421  -0.68784
 Alpha  occ. eigenvalues --   -0.65736  -0.64601  -0.61913  -0.61138  -0.59018
 Alpha  occ. eigenvalues --   -0.58589  -0.57138  -0.54025  -0.51446  -0.50744
 Alpha  occ. eigenvalues --   -0.49856  -0.47717  -0.46889  -0.44179  -0.40666
 Alpha  occ. eigenvalues --   -0.37704  -0.32820  -0.25528
 Alpha virt. eigenvalues --    0.11999   0.15496   0.17823   0.21144   0.25040
 Alpha virt. eigenvalues --    0.26793   0.28562   0.29792   0.32334   0.33618
 Alpha virt. eigenvalues --    0.35263   0.35552   0.36904   0.38115   0.39518
 Alpha virt. eigenvalues --    0.40522   0.42634   0.44292   0.46841   0.49348
 Alpha virt. eigenvalues --    0.52301   0.52964   0.54928   0.56429   0.60573
 Alpha virt. eigenvalues --    0.62823   0.78716   0.82639   0.90862   0.92433
 Alpha virt. eigenvalues --    0.94005   0.96923   0.97422   0.99857   1.00125
 Alpha virt. eigenvalues --    1.00635   1.03707   1.04349   1.05747   1.07541
 Alpha virt. eigenvalues --    1.08100   1.09828   1.10703   1.11799   1.12940
 Alpha virt. eigenvalues --    1.14591   1.17858   1.20145   1.23783   1.27401
 Alpha virt. eigenvalues --    1.28241   1.29224   1.29942   1.32884   1.34293
 Alpha virt. eigenvalues --    1.36374   1.37414   1.40548   1.43350   1.47197
 Alpha virt. eigenvalues --    1.51316   1.55841   1.57716   1.63390   1.65040
 Alpha virt. eigenvalues --    1.65686   1.70791   1.72780   1.74250   1.77609
 Alpha virt. eigenvalues --    1.80600   1.82577   1.84536   1.89398   1.91100
 Alpha virt. eigenvalues --    1.98802   2.01266   2.03400   2.07660   2.15171
 Alpha virt. eigenvalues --    2.18403   2.23326   2.26017   2.32717   2.49463
 Alpha virt. eigenvalues --    2.58076   2.80131   2.96046   3.51080   3.58168
 Alpha virt. eigenvalues --    3.72262
          Condensed to atoms (all electrons):
               1          2          3          4          5          6
     1  C    4.741919   0.549711   0.042378  -0.005409   0.035082  -0.043399
     2  O    0.549711   8.151927  -0.061987   0.003021  -0.071732   0.000276
     3  O    0.042378  -0.061987   9.418746   0.218239  -0.071307   0.001559
     4  H   -0.005409   0.003021   0.218239   0.313272   0.003954  -0.000136
     5  C    0.035082  -0.071732  -0.071307   0.003954   5.761224   0.370095
     6  H   -0.043399   0.000276   0.001559  -0.000136   0.370095   0.412431
     7  N   -0.077803  -0.002230   0.000976  -0.000063   0.272956  -0.025104
     8  H    0.001669   0.002671   0.000027   0.000000  -0.062737   0.003244
     9  H    0.002432   0.002523   0.000045  -0.000002  -0.054120  -0.003104
    10  C   -0.104924   0.000207   0.013535  -0.000861   0.210885  -0.029392
    11  H    0.001389   0.000180  -0.001806   0.000048  -0.071521   0.003541
    12  O    0.001148   0.000000   0.000001   0.000001  -0.035478   0.001469
    13  H   -0.000183   0.000000   0.000003   0.000000   0.006248  -0.000122
    14  C    0.016193   0.000016  -0.047092   0.004877  -0.124143  -0.002198
    15  C    0.000538   0.000000   0.000420  -0.000035  -0.001634   0.000751
    16  C   -0.008343  -0.000557  -0.605884  -0.002380   0.001987   0.001498
    17  C   -0.000013   0.000000   0.000062  -0.000008   0.000013   0.000001
    18  H    0.000014   0.000000   0.000001   0.000001  -0.000286   0.000138
    19  C   -0.000417  -0.000009  -0.001755   0.000982   0.000251  -0.000035
    20  H   -0.009987  -0.004369  -0.175804   0.004062  -0.003538   0.000277
    21  C    0.000003   0.000000  -0.000126   0.000068  -0.000017  -0.000003
    22  H    0.000000   0.000000   0.000000   0.000000   0.000001   0.000000
    23  H   -0.000020   0.000000   0.000623   0.000607   0.000003   0.000000
    24  H    0.000000   0.000000   0.000003  -0.000001   0.000000   0.000000
               7          8          9         10         11         12
     1  C   -0.077803   0.001669   0.002432  -0.104924   0.001389   0.001148
     2  O   -0.002230   0.002671   0.002523   0.000207   0.000180   0.000000
     3  O    0.000976   0.000027   0.000045   0.013535  -0.001806   0.000001
     4  H   -0.000063   0.000000  -0.000002  -0.000861   0.000048   0.000001
     5  C    0.272956  -0.062737  -0.054120   0.210885  -0.071521  -0.035478
     6  H   -0.025104   0.003244  -0.003104  -0.029392   0.003541   0.001469
     7  N    6.904153   0.336453   0.336613  -0.033884   0.000075   0.000902
     8  H    0.336453   0.448105  -0.032444  -0.000935   0.002218   0.000045
     9  H    0.336613  -0.032444   0.436832   0.003894  -0.000156  -0.000020
    10  C   -0.033884  -0.000935   0.003894   5.114393   0.390081   0.251724
    11  H    0.000075   0.002218  -0.000156   0.390081   0.561701  -0.036183
    12  O    0.000902   0.000045  -0.000020   0.251724  -0.036183   8.258533
    13  H   -0.000048  -0.000012   0.000004  -0.048520  -0.003754   0.269899
    14  C    0.002249   0.000017  -0.000127   0.211731  -0.076826  -0.049884
    15  C   -0.000008  -0.000001   0.000000  -0.048429   0.001524  -0.005280
    16  C    0.000064   0.000013   0.000005  -0.055324   0.007053   0.001975
    17  C    0.000000   0.000000   0.000000   0.002413   0.000072   0.000531
    18  H    0.000000   0.000000   0.000000  -0.002652   0.000447   0.010456
    19  C    0.000000   0.000000   0.000000   0.001500  -0.000074  -0.000008
    20  H    0.000020   0.000025   0.000000  -0.000622   0.001775  -0.000001
    21  C    0.000000   0.000000   0.000000  -0.000090   0.000006  -0.000006
    22  H    0.000000   0.000000   0.000000  -0.000044   0.000001   0.000001
    23  H    0.000000   0.000000   0.000000  -0.000039   0.000000   0.000000
    24  H    0.000000   0.000000   0.000000   0.000002   0.000000   0.000000
              13         14         15         16         17         18
     1  C   -0.000183   0.016193   0.000538  -0.008343  -0.000013   0.000014
     2  O    0.000000   0.000016   0.000000  -0.000557   0.000000   0.000000
     3  O    0.000003  -0.047092   0.000420  -0.605884   0.000062   0.000001
     4  H    0.000000   0.004877  -0.000035  -0.002380  -0.000008   0.000001
     5  C    0.006248  -0.124143  -0.001634   0.001987   0.000013  -0.000286
     6  H   -0.000122  -0.002198   0.000751   0.001498   0.000001   0.000138
     7  N   -0.000048   0.002249  -0.000008   0.000064   0.000000   0.000000
     8  H   -0.000012   0.000017  -0.000001   0.000013   0.000000   0.000000
     9  H    0.000004  -0.000127   0.000000   0.000005   0.000000   0.000000
    10  C   -0.048520   0.211731  -0.048429  -0.055324   0.002413  -0.002652
    11  H   -0.003754  -0.076826   0.001524   0.007053   0.000072   0.000447
    12  O    0.269899  -0.049884  -0.005280   0.001975   0.000531   0.010456
    13  H    0.383872   0.000650   0.001729   0.000103  -0.000050  -0.000494
    14  C    0.000650   5.650491   0.467638   0.342546  -0.101341  -0.041062
    15  C    0.001729   0.467638   5.180208  -0.066597   0.432692   0.385791
    16  C    0.000103   0.342546  -0.066597   5.841959  -0.011873   0.003058
    17  C   -0.000050  -0.101341   0.432692  -0.011873   5.245752  -0.023425
    18  H   -0.000494  -0.041062   0.385791   0.003058  -0.023425   0.440457
    19  C    0.000002  -0.065812  -0.012844   0.433458  -0.111196  -0.000042
    20  H    0.000001  -0.028550   0.001327   0.434368   0.000063  -0.000040
    21  C   -0.000005  -0.009348  -0.100152  -0.108917   0.480157   0.002066
    22  H    0.000003   0.003059  -0.035754  -0.000165   0.400284  -0.001253
    23  H    0.000000   0.002307  -0.000112  -0.042824   0.002437   0.000002
    24  H    0.000000  -0.000274   0.002641   0.003301  -0.032729  -0.000031
              19         20         21         22         23         24
     1  C   -0.000417  -0.009987   0.000003   0.000000  -0.000020   0.000000
     2  O   -0.000009  -0.004369   0.000000   0.000000   0.000000   0.000000
     3  O   -0.001755  -0.175804  -0.000126   0.000000   0.000623   0.000003
     4  H    0.000982   0.004062   0.000068   0.000000   0.000607  -0.000001
     5  C    0.000251  -0.003538  -0.000017   0.000001   0.000003   0.000000
     6  H   -0.000035   0.000277  -0.000003   0.000000   0.000000   0.000000
     7  N    0.000000   0.000020   0.000000   0.000000   0.000000   0.000000
     8  H    0.000000   0.000025   0.000000   0.000000   0.000000   0.000000
     9  H    0.000000   0.000000   0.000000   0.000000   0.000000   0.000000
    10  C    0.001500  -0.000622  -0.000090  -0.000044  -0.000039   0.000002
    11  H   -0.000074   0.001775   0.000006   0.000001   0.000000   0.000000
    12  O   -0.000008  -0.000001  -0.000006   0.000001   0.000000   0.000000
    13  H    0.000002   0.000001  -0.000005   0.000003   0.000000   0.000000
    14  C   -0.065812  -0.028550  -0.009348   0.003059   0.002307  -0.000274
    15  C   -0.012844   0.001327  -0.100152  -0.035754  -0.000112   0.002641
    16  C    0.433458   0.434368  -0.108917  -0.000165  -0.042824   0.003301
    17  C   -0.111196   0.000063   0.480157   0.400284   0.002437  -0.032729
    18  H   -0.000042  -0.000040   0.002066  -0.001253   0.000002  -0.000031
    19  C    5.215617  -0.027809   0.478574   0.002391   0.407460  -0.033007
    20  H   -0.027809   0.488209   0.002170   0.000002  -0.002176  -0.000041
    21  C    0.478574   0.002170   5.126906  -0.032839  -0.031787   0.392244
    22  H    0.002391   0.000002  -0.032839   0.450479  -0.000039  -0.001522
    23  H    0.407460  -0.002176  -0.031787  -0.000039   0.474075  -0.001161
    24  H   -0.033007  -0.000041   0.392244  -0.001522  -0.001161   0.445757
 Mulliken charges:
               1
     1  C    0.858020
     2  O   -0.569648
     3  O   -0.730856
     4  H    0.459766
     5  C   -0.166184
     6  H    0.308215
     7  N   -0.715321
     8  H    0.301642
     9  H    0.307625
    10  C    0.125349
    11  H    0.220211
    12  O   -0.669824
    13  H    0.390674
    14  C   -0.155116
    15  C   -0.204413
    16  C   -0.168524
    17  C   -0.283841
    18  H    0.226854
    19  C   -0.287226
    20  H    0.320639
    21  C   -0.198902
    22  H    0.215396
    23  H    0.190645
    24  H    0.224819
 Sum of Mulliken charges =   0.00000
 Mulliken charges with hydrogens summed into heavy atoms:
               1
     1  C    0.858020
     2  O   -0.569648
     3  O    0.049550
     5  C    0.142031
     7  N   -0.106054
    10  C    0.345559
    12  O   -0.279150
    14  C   -0.155116
    15  C    0.022441
    16  C   -0.168524
    17  C   -0.068445
    19  C   -0.096581
    21  C    0.025917
 Electronic spatial extent (au):  <R**2>=           2346.7084
 Charge=              0.0000 electrons
 Dipole moment (field-independent basis, Debye):
    X=             -0.5515    Y=             -2.8570    Z=              0.4555  Tot=              2.9452
 Quadrupole moment (field-independent basis, Debye-Ang):
   XX=            -82.6610   YY=            -74.3323   ZZ=            -77.6539
   XY=              4.5058   XZ=             -1.4715   YZ=              3.8584
 Traceless Quadrupole moment (field-independent basis, Debye-Ang):
   XX=             -4.4453   YY=              3.8834   ZZ=              0.5618
   XY=              4.5058   XZ=             -1.4715   YZ=              3.8584
 Octapole moment (field-independent basis, Debye-Ang**2):
  XXX=            -18.6765  YYY=            -25.3397  ZZZ=             -1.9889  XYY=             29.4202
  XXY=              2.4888  XXZ=            -11.1953  XZZ=            -28.1759  YZZ=              4.9268
  YYZ=             10.3961  XYZ=             -5.6243
 Hexadecapole moment (field-independent basis, Debye-Ang**3):
 XXXX=          -1932.4965 YYYY=           -775.2961 ZZZZ=           -142.4299 XXXY=            -23.4540
 XXXZ=            -26.3710 YYYX=             54.9049 YYYZ=             28.9285 ZZZX=              4.7622
 ZZZY=             10.2249 XXYY=           -556.7737 XXZZ=           -365.9109 YYZZ=           -164.7599
 XXYZ=             15.4477 YYXZ=             -4.3974 ZZXY=              8.2538
 N-N= 8.253661659360D+02 E-N=-3.109672195915D+03  KE= 6.219742655673D+02
 Calling FoFJK, ICntrl=      2127 FMM=F ISym2X=0 I1Cent= 0 IOpClX= 0 NMat=1 NMatS=1 NMatT=0.
 ***** Axes restored to original set *****
 -------------------------------------------------------------------
 Center     Atomic                   Forces (Hartrees/Bohr)
 Number     Number              X              Y              Z
 -------------------------------------------------------------------
      1        6           0.021614250    0.026686130    0.019133038
      2        8          -0.015617940    0.003899724   -0.007358181
      3        8           0.229715739    0.148420853    0.306220115
      4        1           0.002234118    0.018273588    0.026084949
      5        6           0.001623598    0.028446795    0.016731131
      6        1           0.015516673   -0.013501664   -0.016189570
      7        7           0.001242788   -0.015762305    0.000771670
      8        1          -0.004956421    0.006118507    0.001208340
      9        1          -0.008434059    0.000970840   -0.007734889
     10        6          -0.020836298   -0.008355191   -0.000175493
     11        1           0.010782888   -0.005972925   -0.006775665
     12        8           0.011796111    0.010384798    0.009576365
     13        1           0.000561332   -0.001212590   -0.006795440
     14        6          -0.018386247    0.015751124   -0.011417833
     15        6           0.007545578    0.002743694    0.003915478
     16        6          -0.133566493   -0.097364825   -0.145051366
     17        6          -0.018377507   -0.001362718   -0.000311047
     18        1           0.004150654   -0.018782664    0.012325864
     19        6          -0.016145341   -0.002996361    0.013359063
     20        1          -0.092510798   -0.118431667   -0.198250088
     21        6          -0.003838792    0.002588697    0.009917278
     22        1           0.019013743   -0.004428353    0.000867272
     23        1          -0.005531118    0.012123727   -0.013110591
     24        1           0.012403540    0.011762788   -0.006940403
 -------------------------------------------------------------------
 Cartesian Forces:  Max     0.306220115 RMS     0.063278820

 GradGradGradGradGradGradGradGradGradGradGradGradGradGradGradGradGradGrad
 Berny optimization.
 FormGI is forming the generalized inverse of G from B-inverse, IUseBI=4.
 Internal  Forces:  Max     0.221041775 RMS     0.028552522
 Search for a local minimum.
 Step number   1 out of a maximum of  144
 All quantities printed in internal units (Hartrees-Bohrs-Radians)
 Mixed Optimization -- RFO/linear search
 Second derivative matrix not updated -- first step.
 ITU=  0
     Eigenvalues ---    0.00543   0.00698   0.01189   0.01295   0.01451
     Eigenvalues ---    0.01727   0.01954   0.02152   0.02153   0.02154
     Eigenvalues ---    0.02155   0.02155   0.02156   0.02893   0.03161
     Eigenvalues ---    0.03997   0.04010   0.04659   0.05107   0.05785
     Eigenvalues ---    0.06886   0.07353   0.10979   0.11532   0.12644
     Eigenvalues ---    0.13922   0.15065   0.16000   0.16000   0.16000
     Eigenvalues ---    0.16000   0.16000   0.16000   0.16000   0.17622
     Eigenvalues ---    0.18230   0.19942   0.21048   0.22000   0.23075
     Eigenvalues ---    0.24960   0.27242   0.27669   0.28062   0.28941
     Eigenvalues ---    0.30251   0.31494   0.33709   0.33718   0.33718
     Eigenvalues ---    0.33720   0.33796   0.37230   0.39822   0.40989
     Eigenvalues ---    0.42019   0.44413   0.44979   0.45539   0.46417
     Eigenvalues ---    0.46464   0.46481   0.48124   0.48525   0.55473
     Eigenvalues ---    1.01901
 RFO step:  Lambda=-2.31391100D-01 EMin= 5.42837592D-03
 Linear search not attempted -- first point.
 Maximum step size (   0.300) exceeded in Quadratic search.
    -- Step size scaled by   0.456
 Iteration  1 RMS(Cart)=  0.03518039 RMS(Int)=  0.00097418
 Iteration  2 RMS(Cart)=  0.00118011 RMS(Int)=  0.00055610
 Iteration  3 RMS(Cart)=  0.00000155 RMS(Int)=  0.00055610
 Iteration  4 RMS(Cart)=  0.00000000 RMS(Int)=  0.00055610
 Variable       Old X    -DE/DX   Delta X   Delta X   Delta X     New X
                                 (Linear)    (Quad)   (Total)
    R1        2.27887  -0.01701   0.00000  -0.00620  -0.00620   2.27266
    R2        2.59818   0.01748   0.00000   0.01116   0.01103   2.60920
    R3        2.85721   0.00092   0.00000   0.00189   0.00203   2.85923
    R4        1.88083  -0.00489   0.00000  -0.00311  -0.00311   1.87772
    R5        3.10347   0.21105   0.00000   0.20960   0.20987   3.31334
    R6        2.05731   0.22104   0.00000   0.19185   0.19344   2.25075
    R7        2.11780  -0.02594   0.00000  -0.02164  -0.02164   2.09615
    R8        2.80975  -0.01316   0.00000  -0.01054  -0.01054   2.79921
    R9        2.91018   0.02041   0.00000   0.01644   0.01645   2.92663
   R10        1.92000  -0.00623   0.00000  -0.00417  -0.00417   1.91583
   R11        1.92664  -0.01061   0.00000  -0.00716  -0.00716   1.91948
   R12        2.02201   0.01341   0.00000   0.01013   0.01013   2.03214
   R13        2.70231   0.00079   0.00000   0.00056   0.00056   2.70287
   R14        2.91018   0.01145   0.00000   0.01008   0.01023   2.92041
   R15        1.81414   0.00473   0.00000   0.00274   0.00274   1.81688
   R16        2.63647  -0.01275   0.00000  -0.00850  -0.00851   2.62796
   R17        2.63584   0.01003   0.00000   0.00646   0.00638   2.64223
   R18        2.63562  -0.00465   0.00000  -0.00387  -0.00388   2.63174
   R19        2.07805  -0.02253   0.00000  -0.01806  -0.01806   2.05998
   R20        2.63643   0.00305   0.00000   0.00282   0.00284   2.63927
   R21        2.07795   0.00504   0.00000  -0.00398  -0.00628   2.07167
   R22        2.63697  -0.01371   0.00000  -0.00967  -0.00968   2.62730
   R23        2.07809  -0.01952   0.00000  -0.01565  -0.01565   2.06244
   R24        2.63584  -0.01100   0.00000  -0.00706  -0.00705   2.62879
   R25        2.07825  -0.01746   0.00000  -0.01400  -0.01400   2.06425
   R26        2.07809  -0.01842   0.00000  -0.01477  -0.01477   2.06333
    A1        2.10337   0.00357   0.00000   0.00362   0.00368   2.10705
    A2        2.26987  -0.00258   0.00000  -0.00204  -0.00194   2.26793
    A3        1.90914  -0.00128   0.00000  -0.00207  -0.00231   1.90683
    A4        1.97007   0.00611   0.00000   0.00818   0.00796   1.97802
    A5        2.24015  -0.02367   0.00000  -0.02387  -0.02334   2.21682
    A6        2.01285   0.02640   0.00000   0.02301   0.01939   2.03224
    A7        1.86405   0.01007   0.00000   0.01081   0.01139   1.87544
    A8        1.40478   0.03419   0.00000   0.04634   0.04529   1.45007
    A9        1.91867  -0.00459   0.00000  -0.00359  -0.00365   1.91502
   A10        1.88972   0.00118   0.00000   0.00139   0.00133   1.89105
   A11        1.89181   0.01387   0.00000   0.01426   0.01442   1.90623
   A12        1.88841   0.00461   0.00000   0.00410   0.00413   1.89254
   A13        1.86193   0.00308   0.00000   0.00373   0.00353   1.86546
   A14        2.01239  -0.01814   0.00000  -0.01975  -0.01965   1.99274
   A15        1.91999   0.00537   0.00000   0.00692   0.00691   1.92690
   A16        1.93129   0.00060   0.00000   0.00136   0.00135   1.93263
   A17        1.87905   0.00080   0.00000   0.00224   0.00222   1.88126
   A18        1.91063  -0.00217   0.00000  -0.00423  -0.00436   1.90627
   A19        1.91063  -0.02601   0.00000  -0.02727  -0.02735   1.88329
   A20        1.91063   0.02510   0.00000   0.02615   0.02618   1.93681
   A21        1.91063   0.00515   0.00000   0.00295   0.00277   1.91341
   A22        1.91063  -0.00657   0.00000  -0.00409  -0.00407   1.90656
   A23        1.91063   0.00449   0.00000   0.00647   0.00667   1.91730
   A24        1.91114  -0.00043   0.00000  -0.00050  -0.00050   1.91064
   A25        2.09435   0.00336   0.00000   0.00460   0.00472   2.09907
   A26        2.09447   0.00845   0.00000   0.00334   0.00309   2.09756
   A27        2.09437  -0.01181   0.00000  -0.00794  -0.00782   2.08655
   A28        2.09455   0.01016   0.00000   0.00921   0.00919   2.10373
   A29        2.09406  -0.00272   0.00000  -0.00186  -0.00185   2.09221
   A30        2.09458  -0.00744   0.00000  -0.00735  -0.00734   2.08724
   A31        1.79487  -0.02807   0.00000  -0.02346  -0.02311   1.77177
   A32        2.13111   0.01291   0.00000   0.00970   0.00989   2.14099
   A33        2.09440   0.00110   0.00000  -0.00153  -0.00165   2.09274
   A34        2.09453   0.00946   0.00000   0.00108   0.00077   2.09530
   A35        2.09426  -0.01056   0.00000   0.00045   0.00085   2.09511
   A36        2.09429  -0.00055   0.00000  -0.00244  -0.00246   2.09183
   A37        2.09462  -0.00003   0.00000   0.00087   0.00088   2.09550
   A38        2.09427   0.00057   0.00000   0.00157   0.00158   2.09585
   A39        2.09448  -0.00044   0.00000   0.00153   0.00156   2.09603
   A40        2.09411   0.00083   0.00000  -0.00006  -0.00007   2.09404
   A41        2.09459  -0.00039   0.00000  -0.00147  -0.00149   2.09311
   A42        2.09429   0.00154   0.00000   0.00118   0.00118   2.09547
   A43        2.09407  -0.00124   0.00000  -0.00114  -0.00114   2.09292
   A44        2.09483  -0.00030   0.00000  -0.00004  -0.00004   2.09479
    D1        0.03854   0.01246   0.00000   0.01739   0.01751   0.05605
    D2       -2.35631   0.01785   0.00000   0.01827   0.01692  -2.33940
    D3       -1.53352  -0.04208   0.00000  -0.05109  -0.04928  -1.58280
    D4        3.14101   0.00538   0.00000   0.00546   0.00558  -3.13659
    D5        0.74616   0.01076   0.00000   0.00635   0.00498   0.75115
    D6        1.56896  -0.04917   0.00000  -0.06301  -0.06122   1.50774
    D7       -2.05961  -0.00419   0.00000  -0.00737  -0.00723  -2.06684
    D8        0.00000  -0.00054   0.00000  -0.00365  -0.00354  -0.00354
    D9        2.19457  -0.01324   0.00000  -0.01796  -0.01769   2.17688
   D10        1.12601   0.00360   0.00000   0.00589   0.00599   1.13199
   D11       -3.09757   0.00725   0.00000   0.00960   0.00967  -3.08789
   D12       -0.90300  -0.00545   0.00000  -0.00471  -0.00448  -0.90747
   D13       -0.61490  -0.01525   0.00000  -0.01318  -0.01197  -0.62687
   D14       -3.03130   0.00320   0.00000   0.00725   0.00787  -3.02342
   D15       -3.04398  -0.00983   0.00000  -0.01252  -0.01242  -3.05641
   D16        0.82280   0.00862   0.00000   0.00792   0.00742   0.83022
   D17        1.05441   0.00527   0.00000   0.00636   0.00646   1.06087
   D18       -1.01968   0.00051   0.00000  -0.00163  -0.00154  -1.02122
   D19        3.13324   0.00304   0.00000   0.00515   0.00517   3.13841
   D20        1.05915  -0.00171   0.00000  -0.00284  -0.00283   1.05632
   D21       -1.06750  -0.00132   0.00000   0.00021   0.00010  -1.06740
   D22        3.14159  -0.00607   0.00000  -0.00778  -0.00790   3.13370
   D23       -1.04720  -0.00216   0.00000  -0.00151  -0.00141  -1.04861
   D24       -3.14159   0.00879   0.00000   0.01416   0.01407  -3.12752
   D25        1.04720   0.00384   0.00000   0.00691   0.00708   1.05428
   D26       -3.11259  -0.00564   0.00000  -0.00671  -0.00665  -3.11924
   D27        1.07620   0.00532   0.00000   0.00896   0.00883   1.08503
   D28       -1.01819   0.00037   0.00000   0.00171   0.00184  -1.01635
   D29        1.07359  -0.00244   0.00000  -0.00233  -0.00228   1.07130
   D30       -1.02081   0.00851   0.00000   0.01334   0.01320  -1.00761
   D31       -3.11520   0.00356   0.00000   0.00609   0.00621  -3.10899
   D32       -3.03558  -0.01388   0.00000  -0.01850  -0.01845  -3.05402
   D33        1.15321   0.00155   0.00000   0.00157   0.00158   1.15479
   D34       -0.94118   0.00369   0.00000   0.00080   0.00075  -0.94043
   D35        2.09439  -0.01295   0.00000  -0.01527  -0.01522   2.07918
   D36       -1.04729  -0.01047   0.00000  -0.01095  -0.01091  -1.05820
   D37       -2.09440  -0.00426   0.00000  -0.00694  -0.00689  -2.10129
   D38        1.04711  -0.00177   0.00000  -0.00262  -0.00259   1.04452
   D39        0.00000   0.00078   0.00000  -0.00186  -0.00191  -0.00191
   D40        3.14150   0.00326   0.00000   0.00246   0.00239  -3.13929
   D41       -3.14112   0.00253   0.00000   0.00512   0.00506  -3.13606
   D42       -0.00091   0.00112   0.00000   0.00197   0.00193   0.00102
   D43        0.00056   0.00004   0.00000   0.00080   0.00078   0.00135
   D44        3.14078  -0.00137   0.00000  -0.00235  -0.00235   3.13843
   D45        0.70633   0.00605   0.00000   0.00451   0.00359   0.70992
   D46       -3.14124  -0.00533   0.00000  -0.00920  -0.00912   3.13282
   D47       -0.00010  -0.01059   0.00000  -0.00071   0.00024   0.00015
   D48       -2.43536   0.00854   0.00000   0.00883   0.00787  -2.42749
   D49        0.00026  -0.00284   0.00000  -0.00488  -0.00484  -0.00458
   D50        3.14140  -0.00810   0.00000   0.00361   0.00452  -3.13726
   D51       -0.00099   0.00205   0.00000   0.00297   0.00297   0.00198
   D52        3.14093   0.00038   0.00000   0.00028   0.00029   3.14122
   D53       -3.14120   0.00346   0.00000   0.00612   0.00609  -3.13511
   D54        0.00072   0.00179   0.00000   0.00342   0.00341   0.00412
   D55        2.29779  -0.02772   0.00000  -0.02570  -0.02488   2.27290
   D56       -0.84359  -0.02761   0.00000  -0.02600  -0.02516  -0.86875
   D57       -0.00066   0.00355   0.00000   0.00520   0.00518   0.00452
   D58        3.14116   0.00365   0.00000   0.00490   0.00490  -3.13713
   D59        3.14138   0.00880   0.00000  -0.00330  -0.00418   3.13720
   D60        0.00001   0.00891   0.00000  -0.00360  -0.00446  -0.00445
   D61        0.00060  -0.00135   0.00000  -0.00267  -0.00265  -0.00206
   D62       -3.14153  -0.00140   0.00000  -0.00184  -0.00183   3.13983
   D63       -3.14132   0.00032   0.00000   0.00003   0.00003  -3.14129
   D64       -0.00026   0.00028   0.00000   0.00086   0.00085   0.00059
   D65        0.00023  -0.00146   0.00000  -0.00142  -0.00142  -0.00119
   D66       -3.14083  -0.00141   0.00000  -0.00225  -0.00224   3.14011
   D67       -3.14158  -0.00156   0.00000  -0.00113  -0.00114   3.14046
   D68        0.00054  -0.00151   0.00000  -0.00196  -0.00197  -0.00143
         Item               Value     Threshold  Converged?
 Maximum Force            0.221042     0.000450     NO 
 RMS     Force            0.028553     0.000300     NO 
 Maximum Displacement     0.131648     0.001800     NO 
 RMS     Displacement     0.035994     0.001200     NO 
 Predicted change in Energy=-9.300311D-02
 GradGradGradGradGradGradGradGradGradGradGradGradGradGradGradGradGradGrad

                          Input orientation:                          
 ---------------------------------------------------------------------
 Center     Atomic      Atomic             Coordinates (Angstroms)
 Number     Number       Type             X           Y           Z
 ---------------------------------------------------------------------
      1          6           0        0.969741   -0.834426    1.820576
      2          8           0        2.141799   -1.050493    1.981651
      3          8           0        0.027973   -1.802397    2.107844
      4          1           0        0.419645   -2.630765    2.492209
      5          6           0        0.275851    0.382953    1.249787
      6          1           0       -0.384581    0.832543    2.019270
      7          7           0        1.308964    1.377961    0.879891
      8          1           0        1.932718    0.995588    0.178083
      9          1           0        1.869479    1.631718    1.688078
     10          6           0       -0.634268   -0.053003    0.075004
     11          1           0       -0.032278   -0.516302   -0.686153
     12          8           0       -1.260289    1.118916   -0.454573
     13          1           0       -1.890999    0.865815   -1.134671
     14          6           0       -1.711340   -1.053554    0.551579
     15          6           0       -3.060996   -0.740889    0.430749
     16          6           0       -1.334613   -2.277843    1.112090
     17          6           0       -4.036148   -1.635600    0.864414
     18          1           0       -3.360596    0.213386   -0.002738
     19          6           0       -2.312639   -3.173313    1.550494
     20          1           0       -0.272947   -2.531020    1.215017
     21          6           0       -3.660049   -2.850923    1.425206
     22          1           0       -5.093163   -1.382183    0.766202
     23          1           0       -2.019611   -4.128340    1.992411
     24          1           0       -4.423705   -3.552446    1.767062
 ---------------------------------------------------------------------
                    Distance matrix (angstroms):
                    1          2          3          4          5
     1  C    0.000000
     2  O    1.202642   0.000000
     3  O    1.380731   2.247119   0.000000
     4  H    1.995126   2.392434   0.993648   0.000000
     5  C    1.513042   2.464174   2.360818   3.262941   0.000000
     6  H    2.156955   3.151164   2.668512   3.586775   1.109237
     7  N    2.427883   2.793721   3.641907   4.411387   1.481278
     8  H    2.640844   2.735511   3.896249   4.560154   2.066175
     9  H    2.628488   2.711936   3.919246   4.573554   2.071512
    10  C    2.496095   3.512383   2.762495   3.687610   1.548706
    11  H    2.718260   3.482693   3.076376   3.844108   2.156726
    12  O    3.736961   4.713355   4.093856   5.056263   2.409607
    13  H    4.450634   5.444920   4.616894   5.542509   3.257919
    14  C    2.974319   4.109963   2.451109   3.285534   2.549506
    15  C    4.264647   5.437851   3.671672   4.464987   3.615024
    16  C    2.809885   3.787870   1.753344   2.259802   3.113260
    17  C    5.158978   6.305362   4.253353   4.847077   4.776652
    18  H    4.813959   5.984274   4.472173   5.348287   3.849847
    19  C    4.039475   4.953209   2.769208   2.940504   4.408825
    20  H    2.188472   2.934397   1.191043   1.456315   2.965405
    21  C    5.065328   6.100215   3.894472   4.222662   5.097062
    22  H    6.178232   7.343841   5.310613   5.910086   5.672378
    23  H    4.451475   5.175963   3.100957   2.905598   5.115897
    24  H    6.039848   7.029342   4.795439   4.983309   6.151485
                    6          7          8          9         10
     6  H    0.000000
     7  N    2.112761   0.000000
     8  H    2.964191   1.013811   0.000000
     9  H    2.414364   1.015744   1.639740   0.000000
    10  C    2.150977   2.543944   2.774813   3.421847   0.000000
    11  H    3.043487   2.799939   2.625629   3.723928   1.075360
    12  O    2.639842   2.906709   3.257415   3.827449   1.430296
    13  H    3.495389   3.815825   4.044871   4.764002   1.971526
    14  C    2.733454   3.891310   4.197338   4.617855   1.545416
    15  C    3.487446   4.877275   5.293050   5.614243   2.547303
    16  C    3.376394   4.517446   4.718386   5.087497   2.552634
    17  C    4.556244   6.136123   6.559082   6.799280   3.834132
    18  H    3.650826   4.892858   5.353850   5.676637   2.740414
    19  C    4.470352   5.854897   6.106252   6.371606   3.838012
    20  H    3.460180   4.230235   4.286858   4.705546   2.751499
    21  C    4.964829   6.547666   6.901450   7.123121   4.336676
    22  H    5.352190   6.972701   7.440611   7.642764   4.703852
    23  H    5.223448   6.529660   6.720664   6.956716   4.712111
    24  H    5.967098   7.613113   7.975813   8.153892   5.428535
                   11         12         13         14         15
    11  H    0.000000
    12  O    2.058052   0.000000
    13  H    2.359293   0.961452   0.000000
    14  C    2.154036   2.436270   2.561190   0.000000
    15  C    3.235899   2.735912   2.530007   1.390658   0.000000
    16  C    2.834215   3.741380   3.903855   1.398205   2.409741
    17  C    4.437123   4.127042   3.854229   2.416893   1.392657
    18  H    3.475227   2.331401   1.966380   2.152312   1.090097
    19  C    4.154798   4.852934   4.868517   2.419250   2.780388
    20  H    2.780549   4.133328   4.435946   2.166110   3.404830
    21  C    4.803022   5.005201   4.847335   2.791277   2.408330
    22  H    5.335883   4.736741   4.349790   3.404524   2.157195
    23  H    4.916402   5.839348   5.893791   3.409595   3.872738
    24  H    5.875463   6.063372   5.861373   3.883141   3.398170
                   16         17         18         19         20
    16  C    0.000000
    17  C    2.787850   0.000000
    18  H    3.399069   2.151063   0.000000
    19  C    1.396640   2.409512   3.870462   0.000000
    20  H    1.096279   3.884119   4.306770   2.164586   0.000000
    21  C    2.415392   1.390305   3.393919   1.391095   3.408663
    22  H    3.879246   1.091397   2.477680   3.399202   4.975515
    23  H    2.160678   3.398905   4.962806   1.092352   2.491306
    24  H    3.405304   2.153898   4.294635   2.155746   4.310088
                   21         22         23         24
    21  C    0.000000
    22  H    2.155296   0.000000
    23  H    2.155123   4.300197   0.000000
    24  H    1.091865   2.481922   2.482358   0.000000
 Stoichiometry    C9H11NO3
 Framework group  C1[X(C9H11NO3)]
 Deg. of freedom    66
 Full point group                 C1      NOp   1
 Largest Abelian subgroup         C1      NOp   1
 Largest concise Abelian subgroup C1      NOp   1
                         Standard orientation:                         
 ---------------------------------------------------------------------
 Center     Atomic      Atomic             Coordinates (Angstroms)
 Number     Number       Type             X           Y           Z
 ---------------------------------------------------------------------
      1          6           0       -1.745901   -1.081754   -0.161295
      2          8           0       -2.683871   -1.775872    0.129842
      3          8           0       -0.470419   -1.607322   -0.219109
      4          1           0       -0.440125   -2.586191   -0.051075
      5          6           0       -1.685878    0.404883   -0.436257
      6          1           0       -1.341252    0.579637   -1.476017
      7          7           0       -3.051765    0.960605   -0.295860
      8          1           0       -3.397965    0.813921    0.645650
      9          1           0       -3.693487    0.503781   -0.937140
     10          6           0       -0.637437    1.054626    0.500276
     11          1           0       -0.924360    0.887255    1.523047
     12          8           0       -0.617357    2.459113    0.230534
     13          1           0        0.081526    2.874124    0.744069
     14          6           0        0.766124    0.453993    0.260344
     15          6           0        1.813976    1.266539   -0.158828
     16          6           0        0.989473   -0.911937    0.458657
     17          6           0        3.079403    0.729963   -0.383049
     18          1           0        1.645023    2.331646   -0.317933
     19          6           0        2.257628   -1.450545    0.229993
     20          1           0        0.168335   -1.560783    0.785088
     21          6           0        3.299086   -0.629134   -0.189287
     22          1           0        3.896163    1.374686   -0.712264
     23          1           0        2.432438   -2.518261    0.380513
     24          1           0        4.290386   -1.051192   -0.366373
 ---------------------------------------------------------------------
 Rotational constants (GHZ):      1.4183824      0.6408202      0.4599470
 Standard basis: 3-21G (6D, 7F)
 There are   139 symmetry adapted cartesian basis functions of A   symmetry.
 There are   139 symmetry adapted basis functions of A   symmetry.
   139 basis functions,   228 primitive gaussians,   139 cartesian basis functions
    48 alpha electrons       48 beta electrons
       nuclear repulsion energy       820.8511858073 Hartrees.
 NAtoms=   24 NActive=   24 NUniq=   24 SFac= 1.00D+00 NAtFMM=   60 NAOKFM=F Big=F
 Integral buffers will be    262144 words long.
 Raffenetti 1 integral format.
 Two-electron integral symmetry is turned on.
 One-electron integrals computed using PRISM.
 NBasis=   139 RedAO= T EigKep=  1.56D-03  NBF=   139
 NBsUse=   139 1.00D-06 EigRej= -1.00D+00 NBFU=   139
 Initial guess from the checkpoint file:  "D:\mindmap\gaussian\calculate\opt_freq\gly\gly.chk"
 B after Tr=     0.000000    0.000000    0.000000
         Rot=    0.999996   -0.000700   -0.000745    0.002654 Ang=  -0.33 deg.
 ExpMin= 1.83D-01 ExpMax= 3.22D+02 ExpMxC= 3.22D+02 IAcc=1 IRadAn=         1 AccDes= 0.00D+00
 Harris functional with IExCor=  205 and IRadAn=       1 diagonalized for initial guess.
 HarFok:  IExCor=  205 AccDes= 0.00D+00 IRadAn=         1 IDoV= 1 UseB2=F ITyADJ=14
 ICtDFT=  3500011 ScaDFX=  1.000000  1.000000  1.000000  1.000000
 FoFCou: FMM=F IPFlag=           0 FMFlag=      100000 FMFlg1=           0
         NFxFlg=           0 DoJE=T BraDBF=F KetDBF=T FulRan=T
         wScrn=  0.000000 ICntrl=     500 IOpCl=  0 I1Cent=   200000004 NGrid=           0
         NMat0=    1 NMatS0=      1 NMatT0=    0 NMatD0=    1 NMtDS0=    0 NMtDT0=    0
 Petite list used in FoFCou.
 Keep R1 ints in memory in canonical form, NReq=48781641.
 Requested convergence on RMS density matrix=1.00D-08 within 128 cycles.
 Requested convergence on MAX density matrix=1.00D-06.
 Requested convergence on             energy=1.00D-06.
 No special actions if energy rises.
 SCF Done:  E(RHF) =  -622.532506120     A.U. after   14 cycles
            NFock= 14  Conv=0.61D-08     -V/T= 2.0012
 Calling FoFJK, ICntrl=      2127 FMM=F ISym2X=0 I1Cent= 0 IOpClX= 0 NMat=1 NMatS=1 NMatT=0.
 ***** Axes restored to original set *****
 -------------------------------------------------------------------
 Center     Atomic                   Forces (Hartrees/Bohr)
 Number     Number              X              Y              Z
 -------------------------------------------------------------------
      1        6           0.007032566    0.007862137    0.014002973
      2        8          -0.008786337    0.005591501   -0.004755986
      3        8           0.192003293    0.114438695    0.226999386
      4        1           0.000473353    0.019556412    0.015627162
      5        6           0.001335102    0.020331141    0.011433815
      6        1           0.010921243   -0.010496318   -0.012207967
      7        7           0.001027454   -0.012816711    0.000104548
      8        1          -0.004216737    0.004889904    0.000346916
      9        1          -0.006765852    0.001444082   -0.005273581
     10        6          -0.015445216   -0.007898048    0.002437402
     11        1           0.007830487   -0.004162184   -0.003958496
     12        8           0.007837702    0.007089237    0.007205690
     13        1           0.000996073   -0.000221478   -0.006078885
     14        6          -0.007167325    0.006932201   -0.004247245
     15        6           0.004689663    0.003799371    0.002271260
     16        6          -0.100931062   -0.082586877   -0.111871464
     17        6          -0.011532534   -0.001801335   -0.000047031
     18        1           0.002806347   -0.012827574    0.009142935
     19        6          -0.005391609    0.002555049    0.005359905
     20        1          -0.089890702   -0.078463717   -0.140022037
     21        6          -0.006048529    0.001985521    0.007552830
     22        1           0.013763665   -0.003151535    0.000478471
     23        1          -0.003623545    0.009390393   -0.009788262
     24        1           0.009082499    0.008560133   -0.004712337
 -------------------------------------------------------------------
 Cartesian Forces:  Max     0.226999386 RMS     0.048450913

 GradGradGradGradGradGradGradGradGradGradGradGradGradGradGradGradGradGrad
 Berny optimization.
 Using GEDIIS/GDIIS optimizer.
 FormGI is forming the generalized inverse of G from B-inverse, IUseBI=4.
 Internal  Forces:  Max     0.165973443 RMS     0.021591197
 Search for a local minimum.
 Step number   2 out of a maximum of  144
 All quantities printed in internal units (Hartrees-Bohrs-Radians)
 Mixed Optimization -- RFO/linear search
 Update second derivatives using D2CorX and points    1    2
 DE= -9.24D-02 DEPred=-9.30D-02 R= 9.94D-01
 TightC=F SS=  1.41D+00  RLast= 3.18D-01 DXNew= 5.0454D-01 9.5475D-01
 Trust test= 9.94D-01 RLast= 3.18D-01 DXMaxT set to 5.05D-01
 ITU=  1  0
 Use linear search instead of GDIIS.
 Linear search step of   0.602 exceeds DXMaxT=   0.505 but not scaled.
 Quartic linear search produced a step of  2.00000.
 Iteration  1 RMS(Cart)=  0.04429109 RMS(Int)=  0.02339115
 Iteration  2 RMS(Cart)=  0.02977918 RMS(Int)=  0.00285439
 Iteration  3 RMS(Cart)=  0.00031522 RMS(Int)=  0.00284532
 Iteration  4 RMS(Cart)=  0.00000189 RMS(Int)=  0.00284532
 Iteration  5 RMS(Cart)=  0.00000002 RMS(Int)=  0.00284532
 Variable       Old X    -DE/DX   Delta X   Delta X   Delta X     New X
                                 (Linear)    (Quad)   (Total)
    R1        2.27266  -0.01020  -0.01241   0.00000  -0.01241   2.26026
    R2        2.60920   0.00262   0.02205   0.00000   0.02140   2.63060
    R3        2.85923   0.00014   0.00406   0.00000   0.00481   2.86404
    R4        1.87772  -0.01007  -0.00622   0.00000  -0.00622   1.87150
    R5        3.31334   0.16279   0.41973   0.00000   0.41991   3.73325
    R6        2.25075   0.16597   0.38688   0.00000   0.39398   2.64473
    R7        2.09615  -0.01923  -0.04329   0.00000  -0.04329   2.05286
    R8        2.79921  -0.01009  -0.02108   0.00000  -0.02108   2.77813
    R9        2.92663   0.01149   0.03290   0.00000   0.03287   2.95950
   R10        1.91583  -0.00468  -0.00834   0.00000  -0.00834   1.90748
   R11        1.91948  -0.00757  -0.01432   0.00000  -0.01432   1.90515
   R12        2.03214   0.00898   0.02026   0.00000   0.02026   2.05239
   R13        2.70287   0.00134   0.00112   0.00000   0.00112   2.70399
   R14        2.92041   0.00509   0.02047   0.00000   0.02126   2.94167
   R15        1.81688   0.00370   0.00549   0.00000   0.00549   1.82237
   R16        2.62796  -0.00875  -0.01701   0.00000  -0.01706   2.61091
   R17        2.64223   0.00116   0.01276   0.00000   0.01228   2.65450
   R18        2.63174  -0.00407  -0.00777   0.00000  -0.00784   2.62390
   R19        2.05998  -0.01564  -0.03612   0.00000  -0.03612   2.02386
   R20        2.63927  -0.00491   0.00568   0.00000   0.00575   2.64502
   R21        2.07167  -0.01087  -0.01257   0.00000  -0.02268   2.04899
   R22        2.62730  -0.01077  -0.01936   0.00000  -0.01939   2.60790
   R23        2.06244  -0.01410  -0.03131   0.00000  -0.03131   2.03114
   R24        2.62879  -0.00569  -0.01410   0.00000  -0.01406   2.61473
   R25        2.06425  -0.01314  -0.02800   0.00000  -0.02800   2.03624
   R26        2.06333  -0.01333  -0.02954   0.00000  -0.02954   2.03379
    A1        2.10705   0.00715   0.00736   0.00000   0.00748   2.11453
    A2        2.26793  -0.00488  -0.00387   0.00000  -0.00335   2.26458
    A3        1.90683  -0.00252  -0.00462   0.00000  -0.00572   1.90111
    A4        1.97802   0.00337   0.01592   0.00000   0.01462   1.99265
    A5        2.21682  -0.01582  -0.04668   0.00000  -0.04384   2.17298
    A6        2.03224   0.01764   0.03878   0.00000   0.02102   2.05326
    A7        1.87544   0.00665   0.02278   0.00000   0.02625   1.90168
    A8        1.45007   0.02657   0.09058   0.00000   0.08475   1.53482
    A9        1.91502  -0.00341  -0.00731   0.00000  -0.00770   1.90732
   A10        1.89105   0.00259   0.00266   0.00000   0.00232   1.89337
   A11        1.90623   0.00963   0.02883   0.00000   0.02992   1.93615
   A12        1.89254   0.00348   0.00827   0.00000   0.00847   1.90102
   A13        1.86546   0.00290   0.00707   0.00000   0.00579   1.87125
   A14        1.99274  -0.01515  -0.03931   0.00000  -0.03868   1.95406
   A15        1.92690   0.00431   0.01382   0.00000   0.01374   1.94064
   A16        1.93263   0.00096   0.00269   0.00000   0.00261   1.93525
   A17        1.88126   0.00088   0.00443   0.00000   0.00428   1.88555
   A18        1.90627  -0.00288  -0.00872   0.00000  -0.00933   1.89695
   A19        1.88329  -0.01926  -0.05470   0.00000  -0.05509   1.82820
   A20        1.93681   0.01983   0.05236   0.00000   0.05211   1.98892
   A21        1.91341   0.00367   0.00555   0.00000   0.00441   1.91782
   A22        1.90656  -0.00470  -0.00814   0.00000  -0.00792   1.89864
   A23        1.91730   0.00318   0.01333   0.00000   0.01455   1.93185
   A24        1.91064   0.00077  -0.00100   0.00000  -0.00100   1.90963
   A25        2.09907  -0.00030   0.00944   0.00000   0.01007   2.10913
   A26        2.09756   0.00709   0.00618   0.00000   0.00489   2.10246
   A27        2.08655  -0.00680  -0.01564   0.00000  -0.01502   2.07153
   A28        2.10373   0.00583   0.01837   0.00000   0.01825   2.12199
   A29        2.09221  -0.00126  -0.00370   0.00000  -0.00366   2.08855
   A30        2.08724  -0.00457  -0.01469   0.00000  -0.01464   2.07260
   A31        1.77177  -0.02227  -0.04621   0.00000  -0.04408   1.72769
   A32        2.14099   0.01233   0.01977   0.00000   0.02045   2.16144
   A33        2.09274   0.00129  -0.00331   0.00000  -0.00390   2.08884
   A34        2.09530   0.00452   0.00153   0.00000  -0.00053   2.09477
   A35        2.09511  -0.00582   0.00171   0.00000   0.00403   2.09914
   A36        2.09183  -0.00076  -0.00492   0.00000  -0.00504   2.08679
   A37        2.09550  -0.00009   0.00176   0.00000   0.00181   2.09731
   A38        2.09585   0.00085   0.00316   0.00000   0.00321   2.09906
   A39        2.09603   0.00079   0.00311   0.00000   0.00323   2.09927
   A40        2.09404  -0.00038  -0.00014   0.00000  -0.00020   2.09384
   A41        2.09311  -0.00041  -0.00297   0.00000  -0.00303   2.09008
   A42        2.09547  -0.00036   0.00236   0.00000   0.00237   2.09784
   A43        2.09292  -0.00015  -0.00228   0.00000  -0.00229   2.09064
   A44        2.09479   0.00051  -0.00008   0.00000  -0.00008   2.09470
    D1        0.05605   0.00860   0.03502   0.00000   0.03565   0.09169
    D2       -2.33940   0.01349   0.03383   0.00000   0.02635  -2.31304
    D3       -1.58280  -0.03356  -0.09857   0.00000  -0.08802  -1.67082
    D4       -3.13659   0.00367   0.01116   0.00000   0.01175  -3.12484
    D5        0.75115   0.00856   0.00997   0.00000   0.00246   0.75360
    D6        1.50774  -0.03849  -0.12244   0.00000  -0.11192   1.39583
    D7       -2.06684  -0.00337  -0.01446   0.00000  -0.01358  -2.08042
    D8       -0.00354   0.00040  -0.00709   0.00000  -0.00641  -0.00995
    D9        2.17688  -0.01048  -0.03539   0.00000  -0.03366   2.14322
   D10        1.13199   0.00169   0.01197   0.00000   0.01262   1.14461
   D11       -3.08789   0.00545   0.01934   0.00000   0.01979  -3.06810
   D12       -0.90747  -0.00543  -0.00895   0.00000  -0.00746  -0.91493
   D13       -0.62687  -0.01080  -0.02393   0.00000  -0.01756  -0.64442
   D14       -3.02342   0.00090   0.01575   0.00000   0.01918  -3.00424
   D15       -3.05641  -0.00567  -0.02485   0.00000  -0.02437  -3.08078
   D16        0.83022   0.00602   0.01484   0.00000   0.01237   0.84259
   D17        1.06087   0.00374   0.01292   0.00000   0.01359   1.07447
   D18       -1.02122  -0.00074  -0.00308   0.00000  -0.00249  -1.02371
   D19        3.13841   0.00309   0.01034   0.00000   0.01050  -3.13427
   D20        1.05632  -0.00139  -0.00566   0.00000  -0.00558   1.05074
   D21       -1.06740  -0.00037   0.00021   0.00000  -0.00050  -1.06790
   D22        3.13370  -0.00485  -0.01579   0.00000  -0.01658   3.11711
   D23       -1.04861  -0.00149  -0.00282   0.00000  -0.00221  -1.05082
   D24       -3.12752   0.00688   0.02815   0.00000   0.02758  -3.09994
   D25        1.05428   0.00330   0.01417   0.00000   0.01519   1.06947
   D26       -3.11924  -0.00424  -0.01331   0.00000  -0.01291  -3.13216
   D27        1.08503   0.00413   0.01766   0.00000   0.01688   1.10191
   D28       -1.01635   0.00055   0.00368   0.00000   0.00449  -1.01187
   D29        1.07130  -0.00139  -0.00457   0.00000  -0.00424   1.06707
   D30       -1.00761   0.00698   0.02640   0.00000   0.02555  -0.98205
   D31       -3.10899   0.00340   0.01242   0.00000   0.01316  -3.09583
   D32       -3.05402  -0.01175  -0.03690   0.00000  -0.03642  -3.09045
   D33        1.15479   0.00091   0.00316   0.00000   0.00316   1.15795
   D34       -0.94043   0.00243   0.00150   0.00000   0.00101  -0.93942
   D35        2.07918  -0.00908  -0.03043   0.00000  -0.03025   2.04893
   D36       -1.05820  -0.00741  -0.02182   0.00000  -0.02167  -1.07987
   D37       -2.10129  -0.00321  -0.01379   0.00000  -0.01362  -2.11491
   D38        1.04452  -0.00154  -0.00518   0.00000  -0.00504   1.03948
   D39       -0.00191   0.00034  -0.00382   0.00000  -0.00420  -0.00611
   D40       -3.13929   0.00201   0.00479   0.00000   0.00438  -3.13491
   D41       -3.13606   0.00129   0.01012   0.00000   0.00985  -3.12621
   D42        0.00102   0.00020   0.00386   0.00000   0.00366   0.00468
   D43        0.00135  -0.00033   0.00156   0.00000   0.00146   0.00281
   D44        3.13843  -0.00142  -0.00470   0.00000  -0.00473   3.13370
   D45        0.70992   0.00141   0.00719   0.00000   0.00258   0.71250
   D46        3.13282  -0.00342  -0.01824   0.00000  -0.01774   3.11509
   D47        0.00015  -0.00371   0.00049   0.00000   0.00504   0.00519
   D48       -2.42749   0.00305   0.01574   0.00000   0.01092  -2.41657
   D49       -0.00458  -0.00178  -0.00969   0.00000  -0.00940  -0.01398
   D50       -3.13726  -0.00207   0.00904   0.00000   0.01338  -3.12388
   D51        0.00198   0.00166   0.00594   0.00000   0.00591   0.00788
   D52        3.14122   0.00032   0.00058   0.00000   0.00064  -3.14133
   D53       -3.13511   0.00273   0.01218   0.00000   0.01202  -3.12310
   D54        0.00412   0.00139   0.00682   0.00000   0.00675   0.01087
   D55        2.27290  -0.01885  -0.04976   0.00000  -0.04554   2.22736
   D56       -0.86875  -0.01836  -0.05032   0.00000  -0.04602  -0.91476
   D57        0.00452   0.00258   0.01036   0.00000   0.01018   0.01470
[...]
 0000958,0.00003719,-0.00012359,-0.00026988,0.00013986,0.00094672,-0.00
 002378,0.00005601,-0.00022900,-0.00084292,-0.00036489,-0.00060466,0.00
 022605,0.00032779,0.00022187,0.00026320,-0.00002317,0.00018081,0.01014
 648,-0.02843190,0.00298534,0.00073033,-0.00142741,0.00003593,-0.002982
 75,-0.00703572,0.00317350,-0.00033711,0.00000644,-0.00033401,-0.166386
 78,0.07274630,0.00480188,0.02584913,0.04740056,-0.01020823,0.81565578,
 -0.00263114,0.00213808,0.00212340,-0.00141871,-0.00343432,-0.00250474,
 0.00051866,-0.00012721,-0.00124726,-0.00002195,-0.00008355,0.00020583,
 0.00246020,0.00104558,0.00112835,-0.00021437,-0.00056968,-0.00077471,0
 .00026232,-0.00044028,-0.00009024,-0.00007630,-0.00007516,-0.00000128,
 0.00005201,0.00015214,-0.00003515,-0.00232646,-0.01963145,0.00218295,0
 .00190027,0.00096949,0.00005917,0.00045800,-0.00030434,0.00092319,-0.0
 0063160,-0.00067621,0.00042887,-0.01276364,-0.32596657,0.04090977,0.11
 313891,-0.01290786,-0.02113044,-0.05090378,0.72119852,-0.00174306,0.00
 196520,0.00010231,-0.00019573,-0.00281729,-0.00025282,-0.00008050,-0.0
 0062382,-0.00016007,0.00017117,0.00010499,0.00020950,-0.00079732,0.000
 16148,-0.00168983,0.00014975,0.00017491,0.00043467,0.00073199,0.000797
 02,0.00067028,-0.00011518,-0.00012647,-0.00014125,-0.00012209,-0.00002
 474,-0.00016533,-0.00064679,0.01002578,0.00493036,-0.00128104,-0.00022
 657,0.00057286,0.00141789,0.00352344,-0.00047653,0.00012202,-0.0003241
 6,0.00007761,0.01877276,0.02067883,-0.10109314,-0.02117693,-0.00632140
 ,0.02032757,-0.12236841,-0.07462973,0.23049913,-0.00021897,0.00082134,
 0.00060965,-0.00010332,-0.00062155,-0.00027270,0.00016387,-0.00012989,
 -0.00009390,0.00000521,-0.00000558,0.00004667,0.00043284,0.00033148,-0
 .00050897,-0.00024553,-0.00028610,-0.00044992,0.00049194,-0.00015423,0
 .00009216,-0.00011098,-0.00011749,-0.00003159,0.00007015,0.00009756,-0
 .00002214,-0.00415234,0.00632876,0.00197311,-0.00082573,-0.00120229,0.
 00008739,0.00327511,0.00055047,-0.00041290,-0.00057749,-0.00046667,0.0
 0059155,-0.06954459,0.00957665,0.01576172,-0.27075942,-0.12583481,0.05
 905439,-0.01588627,-0.03421102,0.00671950,0.80661755,0.00054679,0.0001
 2507,0.00065463,-0.00031675,-0.00003763,-0.00011131,-0.00003773,-0.000
 00535,-0.00005335,0.00000620,-0.00002193,0.00002882,0.00064482,-0.0004
 1542,-0.00049345,-0.00021866,-0.00026358,-0.00038112,0.00027472,-0.000
 09187,0.00009259,-0.00003476,-0.00008757,-0.00003889,0.00002292,0.0000
 4728,0.00003683,0.00339360,-0.00195788,0.00029545,0.00066261,0.0001859
 2,-0.00080569,-0.00156703,0.00038953,0.00140486,-0.00003487,-0.0004614
 6,0.00021007,-0.05624783,0.09359468,0.00006805,-0.04056969,-0.23168362
 ,0.03045618,-0.03375446,-0.09076744,0.02114852,-0.06015872,0.73093373,
 -0.00011332,-0.00017832,-0.00044634,0.00003431,0.00014997,0.00009006,-
 0.00008233,-0.00000515,0.00014353,0.00002489,0.00001212,-0.00002124,0.
 00089212,0.00072494,-0.00089401,0.00020842,0.00024600,0.00028838,0.000
 21114,0.00051453,0.00047458,0.00003752,-0.00001220,-0.00001299,-0.0000
 7184,-0.00004200,-0.00000766,0.00140347,0.00104818,0.00804898,-0.00082
 225,-0.00059436,0.00030669,0.00032352,-0.00044116,0.00022286,-0.000234
 81,0.00002460,0.00003293,0.02704559,-0.01519078,0.00993771,0.04465042,
 0.04911519,-0.11097236,0.00622864,0.02039794,-0.01567644,-0.12313800,-
 0.07444364,0.22995643,-0.00004867,0.00061538,-0.00018919,0.00009001,-0
 .00048126,0.00005640,0.00006908,-0.00018504,0.00021496,0.00002816,0.00
 001601,-0.00000626,-0.00024658,-0.00028216,0.00038202,-0.00020816,-0.0
 0008862,-0.00048239,0.00020851,-0.00003585,0.00010051,-0.00018660,-0.0
 0015240,-0.00008154,-0.00007144,-0.00000132,-0.00009101,-0.00129868,0.
 00238606,-0.00253050,0.00045782,-0.00013780,0.00027508,0.00104389,-0.0
 0167431,0.00003710,-0.00032714,-0.00012866,0.00084847,0.00157917,0.035
 73572,-0.00364636,-0.07832887,0.04421880,-0.00355840,-0.00615075,0.001
 59411,0.00262264,0.01009298,-0.03009897,0.00434591,0.07751138,0.000034
 90,-0.00024450,-0.00010542,-0.00000010,0.00018355,0.00005895,-0.000031
 07,0.00005386,0.00002256,-0.00001215,-0.00000891,-0.00001379,0.0001658
 4,0.00003931,-0.00004708,0.00004482,0.00011330,0.00008250,-0.00011183,
 -0.00001586,-0.00006755,-0.00001114,0.00005180,0.00002491,0.00001627,-
 0.00003101,0.00003133,0.00022147,-0.00223502,0.00017486,0.00025423,0.0
 0015237,0.00005711,-0.00542835,-0.00029401,0.00138868,0.00053275,0.000
 28453,-0.00036719,0.00126161,-0.01014942,0.00261047,0.04656693,-0.3675
 3112,0.04141290,0.00221117,0.00107249,0.00074328,0.00693699,-0.0141664
 3,0.00192909,-0.04885945,0.39217045,-0.00009095,-0.00002052,0.00016406
 ,0.00004384,-0.00008389,-0.00012708,0.00007304,0.00003346,-0.00017335,
 -0.00001712,-0.00000366,-0.00000830,-0.00072843,-0.00003242,0.00105524
 ,-0.00031738,-0.00014841,-0.00032789,-0.00017744,-0.00040930,-0.000566
 38,0.00006074,0.00011936,0.00014881,0.00009459,0.00005109,0.00001867,-
 0.00029291,-0.00179301,-0.00302200,0.00005202,0.00053409,-0.00027082,-
 0.00066351,0.00102726,-0.00191346,0.00146818,-0.00007919,-0.00111941,0
 .00091173,-0.00384961,0.00714987,-0.00343684,0.04262111,-0.05979270,0.
 00286797,0.00059819,0.00756974,-0.00181008,0.00948668,0.00559743,0.000
 10193,-0.04886262,0.04493440,-0.00107305,0.00025348,0.00004745,0.00005
 204,-0.00065835,-0.00045438,0.00015258,-0.00000742,-0.00034713,-0.0000
 0529,0.00001362,0.00002464,-0.00081172,-0.00015117,-0.00020986,0.00029
 010,0.00026749,0.00062947,-0.00029289,0.00030926,0.00007628,0.00007679
 ,0.00008284,0.00001646,-0.00010253,-0.00007308,-0.00005471,0.00246949,
 0.00245376,0.00214960,-0.00058782,0.00055417,0.00039210,-0.00111986,-0
 .00009292,-0.00122130,0.00038127,0.00058476,-0.00052184,0.07331909,-0.
 09131711,0.00198301,-0.10184264,-0.01263855,0.02206218,-0.26974597,-0.
 03880426,0.04350168,0.02776976,0.11600534,-0.02126791,-0.00109217,-0.0
 0032057,0.00027011,0.70552942,0.00000159,-0.00111254,-0.00119402,0.000
 56995,0.00111647,0.00083285,-0.00004358,0.00014724,0.00056541,-0.00005
 717,0.00004367,-0.00015037,-0.00009894,0.00044185,-0.00053688,0.000015
 10,0.00004092,0.00019030,-0.00000707,0.00026562,0.00006846,0.00012096,
 0.00003443,0.00000713,-0.00002571,-0.00003822,0.00001793,0.00640740,-0
 .00389048,0.00195689,-0.00031456,0.00046555,0.00029472,-0.00186533,-0.
 00176903,0.00062359,0.00022936,0.00004028,-0.00040226,-0.02550920,-0.0
 5016472,0.01523997,-0.01330447,-0.00443044,0.00220025,-0.12422211,-0.2
 2900119,0.04794917,0.04919327,-0.01258315,-0.00625823,-0.00038589,0.00
 093852,-0.00013272,-0.03738633,0.83156190,0.00022908,0.00068041,0.0002
 4159,-0.00047979,-0.00043790,-0.00021738,-0.00005032,-0.00019952,0.000
 13665,0.00012278,0.00005259,0.00004919,0.00107954,0.00096473,-0.000911
 80,-0.00010005,-0.00007715,-0.00023271,0.00049532,0.00009646,0.0003703
 1,-0.00001923,-0.00003989,0.00001441,-0.00000074,0.00004606,-0.0000156
 5,0.00172043,0.00234195,0.00771856,-0.00075382,0.00005913,-0.00014212,
 -0.00009590,-0.00097439,0.00051518,-0.00021161,-0.00013042,0.00003918,
 -0.00921068,0.02928439,0.01092399,0.02193899,0.00163825,-0.01631907,0.
 05758796,0.03002107,-0.10926268,-0.01075088,-0.02096560,0.02030801,0.0
 0017399,-0.00020985,-0.00087191,-0.10430323,-0.09440018,0.22742528,0.0
 0014927,-0.00124189,-0.00113303,-0.00283318,-0.00046799,-0.00075728,-0
 .00017551,0.00014121,0.00072600,0.00002166,0.00006291,-0.00006157,0.00
 028841,-0.00004108,0.00013394,-0.00001972,0.00003529,-0.00004000,-0.00
 012625,0.00008361,-0.00004715,-0.00000274,-0.00000278,-0.00002209,0.00
 000796,-0.00003518,0.00002920,0.00024529,-0.00084440,-0.00077028,0.000
 82956,0.00014772,-0.00001799,0.00008498,0.00009070,-0.00027142,-0.0000
 5702,0.00006091,0.00004770,-0.00047978,-0.00034055,0.00158517,0.001659
 95,0.00021851,0.00108890,-0.32800885,0.10785666,0.04074494,0.00068940,
 -0.00069811,-0.00017975,-0.00010058,-0.00014894,0.00001761,-0.01868965
 ,0.01375821,0.00286985,0.34819133,0.00128549,-0.00309021,-0.00309108,-
 0.00037338,0.00235222,0.00159964,-0.00043005,0.00025124,0.00142484,-0.
 00007812,0.00009585,-0.00025320,0.00003274,-0.00058521,0.00039993,0.00
 006381,0.00019471,0.00007076,-0.00029774,0.00020867,-0.00017079,0.0000
 4708,-0.00002517,-0.00007227,-0.00003901,-0.00008808,0.00006391,0.0014
 8159,0.00022500,-0.00132025,-0.00081858,-0.00042946,0.00071001,-0.0006
 8849,0.00066921,0.00002656,0.00022053,0.00003752,-0.00006538,0.0367132
 8,-0.00854305,-0.00553305,-0.00007724,-0.00643017,0.00248536,0.1046640
 2,-0.11761331,-0.01010136,-0.00079797,-0.00077082,0.00013975,0.0017555
 8,-0.00051119,-0.00037120,-0.02364731,0.01403544,0.00374586,-0.1149311
 5,0.12125781,0.00091196,-0.00367503,-0.00202701,-0.00047009,0.00278836
 ,0.00042938,-0.00013608,0.00051646,0.00072579,-0.00022347,-0.00006666,
 -0.00027976,0.00009782,-0.00074491,0.00095804,-0.00002441,0.00003093,-
 0.00002384,-0.00057694,-0.00002568,-0.00047576,0.00006856,0.00005469,-
 0.00001010,0.00005242,-0.00003643,0.00012738,-0.00235656,-0.00109987,-
 0.00394903,0.00085118,-0.00004485,-0.00015079,0.00020012,0.00026629,-0
 .00026237,0.00000995,0.00008705,0.00006680,-0.00401629,0.00313445,0.00
 729142,0.00114976,0.00231732,0.00769864,0.03873634,-0.00936574,-0.0602
 2197,-0.00013386,0.00031653,-0.00083121,-0.00023551,0.00008172,-0.0000
 0755,0.00974335,-0.00467326,0.00594329,-0.04533254,0.00887090,0.043603
 00,0.00049509,-0.00007027,0.00101657,-0.00030011,0.00001134,-0.0003401
 2,0.00006091,0.00015607,-0.00037158,-0.00006651,-0.00005431,0.00002217
 ,0.00052509,-0.00021212,0.00080371,-0.00015131,-0.00020036,-0.00038721
 ,-0.00013197,-0.00041880,-0.00028344,-0.00005501,0.00001004,0.00002888
 ,0.00009255,0.00004304,0.00005372,-0.00175489,0.00056921,-0.00144892,0
 .00028751,-0.00035208,-0.00033227,0.00033135,0.00000629,0.00077977,-0.
 00027466,-0.00021753,0.00023020,-0.04311282,0.05320225,-0.00114738,0.0
 7250886,-0.02514762,-0.00918324,-0.06800488,-0.05686228,0.02752175,-0.
 16695746,-0.01353253,0.01804154,-0.00402535,-0.00286356,0.00314998,-0.
 31610349,0.10902896,0.03020827,-0.00144224,-0.00337817,0.00300781,0.77
 430273,-0.00027869,-0.00060616,-0.00017054,0.00011053,0.00031866,-0.00
 008673,0.00001654,0.00019436,-0.00020958,-0.00004897,-0.00002709,-0.00
 003588,-0.00056381,-0.00004423,0.00077996,0.00026752,0.00025678,0.0004
 9721,-0.00062028,0.00004918,-0.00023371,0.00009132,0.00013299,0.000046
 38,-0.00003944,-0.00008633,0.00000610,0.00174116,-0.00106639,-0.000131
 65,-0.00025390,0.00034543,0.00040619,-0.00131863,-0.00062109,-0.000480
 12,0.00031996,0.00053061,-0.00051701,0.05297324,-0.06906093,-0.0023508
 9,-0.09086945,-0.04852653,0.03020564,0.00920071,0.09249817,-0.01500087
 ,0.07263497,-0.33955956,0.02400818,-0.00276089,0.00012844,0.00209158,0
 .02277263,-0.19046603,0.01098647,-0.00366655,-0.00255464,0.00260774,0.
 04133392,0.75600156,0.00007631,-0.00005591,-0.00046385,0.00014772,0.00
 017748,0.00026657,-0.00008649,-0.00009595,0.00026015,0.00006168,0.0000
 3723,-0.00003130,-0.00015396,-0.00003320,-0.00021419,-0.00003765,-0.00
 002014,-0.00004453,0.00008838,0.00003306,0.00007253,-0.00000513,-0.000
 01569,-0.00001756,-0.00000689,0.00000393,-0.00001394,-0.00003836,0.000
 00886,-0.00043469,0.00011863,0.00012883,0.00000830,0.00001557,0.000166
 15,-0.00015487,0.00007382,-0.00004594,-0.00006166,-0.00194779,-0.00248
 653,-0.01099627,0.00253433,0.01572737,0.01166785,0.01642567,-0.0003888
 3,0.01085234,0.00414951,0.04229697,-0.10066468,0.00320456,0.00215350,0
 .00795154,0.04415959,-0.00778795,-0.10099118,0.00254259,0.00258931,0.0
 0778333,-0.13205914,-0.09956057,0.23403978,0.00006818,0.00000455,0.000
 32328,-0.00006956,-0.00003441,-0.00014629,-0.00001029,0.00001702,-0.00
 022629,0.00000678,0.00001064,0.00003784,-0.00000785,0.00004252,0.00027
 963,-0.00001083,0.00000241,-0.00000768,-0.00016278,-0.00018587,-0.0001
 8389,0.00000769,0.00005764,0.00005222,0.00005684,0.00001641,0.00002996
 ,-0.00062224,0.00124082,-0.00017830,-0.00031380,-0.00029413,0.00006427
 ,0.00015786,-0.00030147,0.00012677,-0.00003570,0.00008913,-0.00007362,
 -0.00165065,-0.00386574,0.00287191,-0.02000523,0.01478275,0.00335098,0
 .00069605,-0.00078157,-0.00023984,-0.32402683,0.10673434,0.04142601,0.
 00072306,-0.00065966,-0.00119855,0.00191040,0.00058080,0.00139922,-0.0
 0010520,0.00001889,-0.00024429,-0.00001378,-0.00165689,0.00174811,0.34
 286268,0.00001149,-0.00006050,0.00002808,0.00001038,0.00005388,-0.0000
 1132,0.00000582,0.00002130,-0.00001204,-0.00000943,-0.00000766,-0.0000
 0889,-0.00001869,0.00003260,0.00008648,-0.00001426,-0.00000279,-0.0000
 2091,-0.00002597,-0.00005250,-0.00005672,-0.00000611,0.00000952,0.0000
 1068,0.00001850,0.00000438,0.00000726,-0.00066854,0.00072077,-0.000003
 77,-0.00022259,-0.00020341,0.00005765,0.00026967,-0.00002343,-0.000014
 02,-0.00002595,0.00001959,0.00001099,-0.00348267,-0.00227548,0.0025309
 7,-0.02342288,0.01372948,0.00379713,-0.00082136,-0.00085174,0.00012607
 ,0.10661121,-0.11847323,-0.01205685,0.00025873,0.00082733,-0.00098859,
 0.00003491,-0.00641869,0.00243935,0.00000101,0.00004194,-0.00021525,0.
 03678580,-0.00758363,-0.00560331,-0.11611600,0.12013397,-0.00006059,0.
 00006616,0.00001142,0.00003066,-0.00006955,-0.00001065,0.00003249,-0.0
 0000436,-0.00002639,-0.00001416,-0.00000106,0.00000563,-0.00005815,-0.
 00000705,-0.00003310,-0.00001522,-0.00001048,0.00001522,0.00002726,0.0
 0005590,0.00000398,0.00000613,-0.00000327,0.00000583,-0.00001499,-0.00
 000472,-0.00000720,0.00021505,-0.00062726,0.00003993,0.00003936,0.0000
 0596,-0.00006640,-0.00002236,0.00022232,-0.00008515,0.00003616,0.00000
 180,0.00004111,0.00303874,0.00276402,0.00783169,0.00952863,-0.00425356
 ,0.00560536,-0.00018632,0.00020590,-0.00082495,0.04136509,-0.01220083,
 -0.05926594,-0.00143524,-0.00095821,-0.00508123,0.00143033,0.00227895,
 0.00798675,-0.00021415,-0.00021754,-0.00122010,-0.00444934,0.00273295,
 0.00742900,-0.04787751,0.01100284,0.04255312,0.00012643,-0.00026077,0.
 00004012,-0.00005884,0.00022941,-0.00000493,-0.00001426,0.00008824,-0.
 00002449,-0.00002351,-0.00003261,-0.00002062,-0.00001112,0.00004872,0.
 00012071,-0.00000696,-0.00000437,-0.00000532,-0.00009552,-0.00004785,-
 0.00008588,0.00001902,0.00002597,0.00002064,0.00002333,-0.00000317,0.0
 0002194,0.00085018,-0.00065827,-0.00005294,0.00000973,0.00003508,0.000
 03321,-0.00018042,-0.00059287,0.00020540,-0.00002671,0.00002848,-0.000
 04359,-0.00413041,-0.00300573,0.00316241,-0.00112500,-0.00034683,0.000
 14253,0.00991346,-0.03076292,0.00422194,-0.00575953,0.00189557,0.00278
 394,-0.00000053,-0.00005169,-0.00024739,-0.08106527,0.04775979,-0.0013
 8443,0.00078635,0.00030195,-0.00148436,0.00084038,0.03657502,-0.004537
 62,-0.00016236,0.00156732,-0.00024096,0.07933291,0.00016491,-0.0002859
 5,0.00033610,-0.00013821,0.00018057,-0.00015998,-0.00000820,0.00013949
 ,-0.00021647,-0.00004906,-0.00005145,0.00001369,0.00001429,0.00000835,
 0.00021831,0.00000729,0.00000410,0.00000773,-0.00019287,-0.00011780,-0
 .00015929,0.00003320,0.00005142,0.00003537,0.00004849,0.00000221,0.000
 04315,0.00085474,-0.00026065,-0.00023573,-0.00006342,-0.00001567,0.000
 03448,-0.00028150,-0.00055283,0.00022402,0.00002978,0.00006058,-0.0001
 0907,-0.00341208,-0.00005177,0.00214194,-0.00033343,0.00098838,-0.0002
 4762,0.00753968,-0.01617745,0.00209774,0.00241454,0.00124326,0.0006510
 8,-0.00002248,-0.00011089,-0.00016300,0.04764647,-0.36301508,0.0392306
 4,-0.00058526,0.00081416,-0.00088778,-0.00192244,-0.00841802,0.0028517
 3,-0.00003385,-0.00052681,0.00008527,-0.05203095,0.38525850,-0.0001456
 1,0.00007287,0.00021302,0.00001013,-0.00014094,-0.00015071,0.00007639,
 0.00005559,-0.00011829,-0.00006031,-0.00004682,0.00001443,0.00002981,-
 0.00007354,0.00003775,0.00002109,-0.00000588,-0.00000633,0.00003433,0.
 00001836,0.00000133,-0.00000503,-0.00001121,-0.00000887,-0.00000263,0.
 00000068,0.00000027,-0.00038690,0.00018808,0.00003167,0.00006863,0.000
 01749,-0.00002378,-0.00002210,-0.00001855,-0.00012003,-0.00001453,0.00
 000979,0.00002221,0.00328123,0.00222299,0.00776890,0.00010979,-0.00014
 141,-0.00087050,-0.00174822,0.01036264,0.00561899,0.00273299,0.0007547
 7,0.00793857,-0.00026534,-0.00018690,-0.00116308,-0.00142580,0.0392301
 8,-0.05812036,-0.00106066,-0.00106997,-0.00497943,0.00155401,-0.005399
 57,0.00742336,0.00001761,-0.00026881,-0.00005171,-0.00144473,-0.044752
 64,0.04142214,0.00000933,0.00013484,0.00034633,-0.00010540,-0.00015618
 ,-0.00018179,0.00001086,0.00000907,-0.00021821,-0.00000144,-0.00000633
 ,0.00004891,0.00001299,0.00001336,0.00006296,-0.00000228,-0.00000542,-
 0.00000332,-0.00007303,-0.00008999,-0.00007024,0.00000639,0.00002366,0
 .00002368,0.00002495,0.00001165,0.00001548,-0.00003806,0.00005396,-0.0
 0031141,0.00004938,-0.00000499,-0.00002004,0.00001246,-0.00017727,0.00
 006726,0.00000028,0.00003149,-0.00003008,0.00007904,0.00110995,-0.0003
 5722,0.00111404,0.00230326,0.00128456,-0.00416160,0.00416887,0.0020688
 4,0.00955966,0.00708323,-0.00174725,0.00028145,0.00025149,-0.00013114,
 -0.01941860,-0.02444505,0.00953525,-0.00091344,-0.00102777,0.00040509,
 -0.24704998,-0.13596001,0.06352656,0.00070754,-0.00074042,-0.00116090,
 0.00075865,0.00032036,-0.00135414,0.25913681,0.00006758,-0.00009379,0.
 00008896,-0.00001543,0.00007675,-0.00001696,-0.00002109,0.00002868,-0.
 00008406,-0.00000399,0.00000237,0.00001572,0.00002212,-0.00000540,0.00
 006221,0.00001553,0.00001373,0.00003634,-0.00008992,-0.00004601,-0.000
 06709,0.00002144,0.00002690,0.00001627,0.00001866,0.00000107,0.0000195
 3,0.00009273,-0.00008577,-0.00015716,-0.00005394,-0.00002140,0.0000293
 5,-0.00038730,-0.00003877,0.00009973,0.00008989,0.00004172,-0.00010136
 ,0.00110181,-0.00039917,-0.00032792,0.00289689,-0.00585686,0.00169432,
 0.00361822,-0.00044670,0.00069998,-0.03151092,-0.01517251,0.01026112,-
 0.00128529,-0.00071759,0.00037531,0.01411834,0.01375768,-0.00415248,0.
 00054713,0.00045752,-0.00023697,-0.13591483,-0.18183555,0.04991958,0.0
 0033167,0.00088512,-0.00106417,-0.00075752,0.00083334,-0.00081718,0.14
 709825,0.18859463,0.00002649,-0.00004341,0.00001632,0.00006308,0.00005
 301,0.00002340,0.00002012,0.00002857,-0.00002565,-0.00002930,-0.000012
 58,-0.00000011,-0.00008352,-0.00012801,0.00012608,-0.00000745,-0.00000
 513,-0.00000561,-0.00003532,-0.00002190,-0.00005949,-0.00000614,-0.000
 00330,-0.00000286,0.00000079,-0.00000305,0.00000180,-0.00044196,-0.000
 35717,-0.00107529,0.00012860,-0.00002866,-0.00002078,0.00001970,0.0001
 1900,-0.00007366,0.00001100,-0.00000585,0.00004313,-0.00023630,-0.0001
 1645,-0.00062435,0.00100762,0.00175611,0.00818072,0.00226337,0.0006208
 5,0.00809967,0.00444121,0.00224292,0.00544673,0.00015816,0.00004675,-0
 .00014459,0.00331992,0.00408007,0.00541246,0.00012201,0.00013925,-0.00
 018817,0.06358425,0.04980870,-0.07366601,-0.00135156,-0.00083701,-0.00
 485620,-0.00117561,-0.00103967,-0.00487954,-0.07179917,-0.05629305,0.0
 5827203||0.00000023,-0.00002039,0.00001540,0.00000519,-0.00000238,-0.0
 0000960,-0.00001710,0.00002051,0.00000438,0.00000769,-0.00000087,-0.00
 001286,0.00000200,0.00000551,-0.00000248,0.00000598,0.00000083,-0.0000
 0052,-0.00001064,-0.00000234,-0.00001262,0.00000743,-0.00000360,0.0000
 0708,-0.00000225,0.00000347,0.00000504,0.00000217,0.00000346,0.0000155
 1,0.00000589,-0.00000348,-0.00000251,-0.00000012,0.00000058,0.00000817
 ,-0.00000399,-0.00000346,-0.00000359,-0.00001356,-0.00000868,-0.000004
 30,-0.00000583,-0.00000101,0.00000293,0.00001200,0.00000186,-0.0000107
 3,-0.00000093,0.00001081,-0.00000201,0.00000363,0.00000229,-0.00000307
 ,-0.00001335,0.00000046,0.00000403,0.00000746,0.00000106,-0.00000010,0
 .00000879,-0.00000474,0.00000265,0.00000061,-0.00000289,0.00000002,0.0
 0000004,0.00000222,-0.00000026,-0.00000133,0.00000079,-0.00000056|||@


 KNOWLEDGE IS CHIMERA - FOR BEYOND IT LIES OTHER KNOWLEDGE,
 AND THE INCOMPLETENESS OF WHAT IS KNOWN RENDERS THE KNOWING FALSE.
     -- THE THOMAS COVENANT CHRONICLES
 Job cpu time:       0 days  0 hours  0 minutes 53.0 seconds.
 File lengths (MBytes):  RWF=     73 Int=      0 D2E=      0 Chk=      7 Scr=      1
 Normal termination of Gaussian 09 at Tue Mar 15 09:29:45 2022.
