 Entering Link 1 = C:\G09W\l1.exe PID=     14284.
  
 Copyright (c) 1988,1990,1992,1993,1995,1998,2003,2009,2013,
            Gaussian, Inc.  All Rights Reserved.
  
 This is part of the Gaussian(R) 09 program.  It is based on
 the Gaussian(R) 03 system (copyright 2003, Gaussian, Inc.),
 the Gaussian(R) 98 system (copyright 1998, Gaussian, Inc.),
 the Gaussian(R) 94 system (copyright 1995, Gaussian, Inc.),
 the Gaussian 92(TM) system (copyright 1992, Gaussian, Inc.),
 the Gaussian 90(TM) system (copyright 1990, Gaussian, Inc.),
 the Gaussian 88(TM) system (copyright 1988, Gaussian, Inc.),
 the Gaussian 86(TM) system (copyright 1986, Carnegie Mellon
 University), and the Gaussian 82(TM) system (copyright 1983,
 Carnegie Mellon University). Gaussian is a federally registered
 trademark of Gaussian, Inc.
  
 This software contains proprietary and confidential information,
 including trade secrets, belonging to Gaussian, Inc.
  
 This software is provided under written license and may be
 used, copied, transmitted, or stored only in accord with that
 written license.
  
 The following legend is applicable only to US Government
 contracts under FAR:
  
                    RESTRICTED RIGHTS LEGEND
  
 Use, reproduction and disclosure by the US Government is
 subject to restrictions as set forth in subparagraphs (a)
 and (c) of the Commercial Computer Software - Restricted
 Rights clause in FAR 52.227-19.
  
 Gaussian, Inc.
 340 Quinnipiac St., Bldg. 40, Wallingford CT 06492
  
  
 ---------------------------------------------------------------
 Warning -- This program may not be used in any manner that
 competes with the business of Gaussian, Inc. or will provide
 assistance to any competitor of Gaussian, Inc.  The licensee
 of this program is prohibited from giving any competitor of
 Gaussian, Inc. access to this program.  By using this program,
 the user acknowledges that Gaussian, Inc. is engaged in the
 business of creating and licensing software in the field of
 computational chemistry and represents and warrants to the
 licensee that it is not a competitor of Gaussian, Inc. and that
 it will not use this program in any manner prohibited above.
 ---------------------------------------------------------------
  

 Cite this work as:
 Gaussian 09, Revision D.01,
 M. J. Frisch, G. W. Trucks, H. B. Schlegel, G. E. Scuseria, 
 M. A. Robb, J. R. Cheeseman, G. Scalmani, V. Barone, B. Mennucci, 
 G. A. Petersson, H. Nakatsuji, M. Caricato, X. Li, H. P. Hratchian, 
 A. F. Izmaylov, J. Bloino, G. Zheng, J. L. Sonnenberg, M. Hada, 
 M. Ehara, K. Toyota, R. Fukuda, J. Hasegawa, M. Ishida, T. Nakajima, 
 Y. Honda, O. Kitao, H. Nakai, T. Vreven, J. A. Montgomery, Jr., 
 J. E. Peralta, F. Ogliaro, M. Bearpark, J. J. Heyd, E. Brothers, 
 K. N. Kudin, V. N. Staroverov, T. Keith, R. Kobayashi, J. Normand, 
 K. Raghavachari, A. Rendell, J. C. Burant, S. S. Iyengar, J. Tomasi, 
 M. Cossi, N. Rega, J. M. Millam, M. Klene, J. E. Knox, J. B. Cross, 
 V. Bakken, C. Adamo, J. Jaramillo, R. Gomperts, R. E. Stratmann, 
 O. Yazyev, A. J. Austin, R. Cammi, C. Pomelli, J. W. Ochterski, 
 R. L. Martin, K. Morokuma, V. G. Zakrzewski, G. A. Voth, 
 P. Salvador, J. J. Dannenberg, S. Dapprich, A. D. Daniels, 
 O. Farkas, J. B. Foresman, J. V. Ortiz, J. Cioslowski, 
 and D. J. Fox, Gaussian, Inc., Wallingford CT, 2013.
 
 ******************************************
 Gaussian 09:  IA32W-G09RevD.01 24-Apr-2013
                13-Mar-2022 
 ******************************************
 %chk=D:\mindmap\gaussian\calculate\opt_freq\gly\gly.chk
 %nprocshared=4
 Will use up to    4 processors via shared memory.
 %mem=1GB
 --------------
 # opt freq pm6
 --------------
 1/14=-1,18=20,19=15,26=1,38=1/1,3;
 2/9=110,12=2,17=6,18=5,40=1/2;
 3/5=2,16=1,25=1,41=3900000,71=1/1,2,3;
 4/35=1/1;
 5/5=2,35=1,38=5/2;
 6/7=2,8=2,9=2,10=2,28=1/1;
 7//1,2,3,16;
 1/14=-1,18=20,19=15,26=1/3(2);
 2/9=110/2;
 99//99;
 2/9=110/2;
 3/5=2,16=1,25=1,41=3900000,71=1,135=20/1,2,3;
 4/5=5,16=3,35=1/1;
 5/5=2,35=1,38=5/2;
 7//1,2,3,16;
 1/14=-1,18=20,19=15,26=1/3(-5);
 2/9=110/2;
 6/7=2,8=2,9=2,10=2,19=2,28=1/1;
 99/9=1/99;
 ------------
 opt freq(GC)
 ------------
 Symbolic Z-matrix:
 Charge =  0 Multiplicity = 1
 C                     0.06179   0.38409  -0.0029 
 O                    -0.3625    1.51565  -0.00959 
 O                    -0.73209  -0.71528  -0.00684 
 H                    -1.63779  -0.38238  -0.00849 
 C                     1.5468   -0.02147   0.04026 
 H                     1.7385   -0.57884   0.93328 
 H                     1.7767   -0.62478  -0.81301 
 N                     2.3908    1.19422   0.02674 
 H                     2.9808    1.18143  -0.78056 
 H                     2.95531   1.21728   0.85184 
 

 GradGradGradGradGradGradGradGradGradGradGradGradGradGradGradGradGradGrad
 Berny optimization.
 Initialization pass.
                           ----------------------------
                           !    Initial Parameters    !
                           ! (Angstroms and Degrees)  !
 --------------------------                            --------------------------
 ! Name  Definition              Value          Derivative Info.                !
 --------------------------------------------------------------------------------
 ! R1    R(1,2)                  1.2085         estimate D2E/DX2                !
 ! R2    R(1,3)                  1.3561         estimate D2E/DX2                !
 ! R3    R(1,5)                  1.54           estimate D2E/DX2                !
 ! R4    R(3,4)                  0.9649         estimate D2E/DX2                !
 ! R5    R(5,6)                  1.07           estimate D2E/DX2                !
 ! R6    R(5,7)                  1.07           estimate D2E/DX2                !
 ! R7    R(5,8)                  1.48           estimate D2E/DX2                !
 ! R8    R(8,9)                  1.0            estimate D2E/DX2                !
 ! R9    R(8,10)                 1.0            estimate D2E/DX2                !
 ! A1    A(2,1,3)              123.6107         estimate D2E/DX2                !
 ! A2    A(2,1,5)              125.8229         estimate D2E/DX2                !
 ! A3    A(3,1,5)              110.5551         estimate D2E/DX2                !
 ! A4    A(1,3,4)              105.6527         estimate D2E/DX2                !
 ! A5    A(1,5,6)              109.4712         estimate D2E/DX2                !
 ! A6    A(1,5,7)              109.4712         estimate D2E/DX2                !
 ! A7    A(1,5,8)              109.4712         estimate D2E/DX2                !
 ! A8    A(6,5,7)              109.4713         estimate D2E/DX2                !
 ! A9    A(6,5,8)              109.4712         estimate D2E/DX2                !
 ! A10   A(7,5,8)              109.4712         estimate D2E/DX2                !
 ! A11   A(5,8,9)              109.4712         estimate D2E/DX2                !
 ! A12   A(5,8,10)             109.4713         estimate D2E/DX2                !
 ! A13   A(9,8,10)             109.4712         estimate D2E/DX2                !
 ! D1    D(2,1,3,4)             -0.4368         estimate D2E/DX2                !
 ! D2    D(5,1,3,4)            178.4026         estimate D2E/DX2                !
 ! D3    D(2,1,5,6)            118.1089         estimate D2E/DX2                !
 ! D4    D(2,1,5,7)           -121.8911         estimate D2E/DX2                !
 ! D5    D(2,1,5,8)             -1.8911         estimate D2E/DX2                !
 ! D6    D(3,1,5,6)            -60.699          estimate D2E/DX2                !
 ! D7    D(3,1,5,7)             59.301          estimate D2E/DX2                !
 ! D8    D(3,1,5,8)            179.301          estimate D2E/DX2                !
 ! D9    D(1,5,8,9)           -119.5637         estimate D2E/DX2                !
 ! D10   D(1,5,8,10)           120.4363         estimate D2E/DX2                !
 ! D11   D(6,5,8,9)            120.4363         estimate D2E/DX2                !
 ! D12   D(6,5,8,10)             0.4363         estimate D2E/DX2                !
 ! D13   D(7,5,8,9)              0.4363         estimate D2E/DX2                !
 ! D14   D(7,5,8,10)          -119.5637         estimate D2E/DX2                !
 --------------------------------------------------------------------------------
 Trust Radius=3.00D-01 FncErr=1.00D-07 GrdErr=1.00D-07
 Number of steps in this run=     46 maximum allowed number of steps=    100.
 GradGradGradGradGradGradGradGradGradGradGradGradGradGradGradGradGradGrad

                          Input orientation:                          
 ---------------------------------------------------------------------
 Center     Atomic      Atomic             Coordinates (Angstroms)
 Number     Number       Type             X           Y           Z
 ---------------------------------------------------------------------
      1          6           0        0.061785    0.384094   -0.002898
      2          8           0       -0.362497    1.515650   -0.009593
      3          8           0       -0.732092   -0.715279   -0.006840
      4          1           0       -1.637794   -0.382383   -0.008490
      5          6           0        1.546797   -0.021465    0.040256
      6          1           0        1.738499   -0.578839    0.933276
      7          1           0        1.776699   -0.624782   -0.813005
      8          7           0        2.390796    1.194217    0.026735
      9          1           0        2.980799    1.181430   -0.780565
     10          1           0        2.955311    1.217282    0.851836
 ---------------------------------------------------------------------
                    Distance matrix (angstroms):
                    1          2          3          4          5
     1  C    0.000000
     2  O    1.208503   0.000000
     3  O    1.356052   2.261339   0.000000
     4  H    1.864427   2.286682   0.964945   0.000000
     5  C    1.540000   2.451655   2.382630   3.205348   0.000000
     6  H    2.148263   3.112888   2.646933   3.510680   1.070000
     7  H    2.148263   3.130987   2.636688   3.516356   1.070000
     8  N    2.466063   2.772230   3.660564   4.326250   1.480000
     9  H    3.124284   3.447278   4.240485   4.936903   2.043787
    10  H    3.130058   3.440775   4.250771   4.939200   2.043788
                    6          7          8          9         10
     6  H    0.000000
     7  H    1.747303   0.000000
     8  N    2.095479   2.095479   0.000000
     9  H    2.753017   2.171016   1.000000   0.000000
    10  H    2.171017   2.748457   1.000000   1.632993   0.000000
 Stoichiometry    C2H5NO2
 Framework group  C1[X(C2H5NO2)]
 Deg. of freedom    24
 Full point group                 C1      NOp   1
 Largest Abelian subgroup         C1      NOp   1
 Largest concise Abelian subgroup C1      NOp   1
                         Standard orientation:                         
 ---------------------------------------------------------------------
 Center     Atomic      Atomic             Coordinates (Angstroms)
 Number     Number       Type             X           Y           Z
 ---------------------------------------------------------------------
      1          6           0       -0.566257    0.113691   -0.005632
      2          8           0       -0.635344    1.320181    0.003721
      3          8           0       -1.650826   -0.700305   -0.005595
      4          1           0       -2.416717   -0.113549    0.010147
      5          6           0        0.731708   -0.714945    0.010135
      6          1           0        0.760879   -1.315264    0.895384
      7          1           0        0.760847   -1.348554   -0.851602
      8          7           0        1.898450    0.195447   -0.007234
      9          1           0        2.447408    0.018218   -0.824078
     10          1           0        2.455089    0.039528    0.808758
 ---------------------------------------------------------------------
 Rotational constants (GHZ):     10.3372456      3.8094427      2.8750223
 Standard basis: VSTO-6G (5D, 7F)
 There are    25 symmetry adapted cartesian basis functions of A   symmetry.
 There are    25 symmetry adapted basis functions of A   symmetry.
    25 basis functions,   150 primitive gaussians,    25 cartesian basis functions
    15 alpha electrons       15 beta electrons
       nuclear repulsion energy       124.9548659604 Hartrees.
 Integral buffers will be    262144 words long.
 Regular integral format.
 Two-electron integral symmetry is turned off.
 Do NDO integrals.
 One-electron integrals computed using PRISM.
 NBasis=    25 RedAO= F EigKep=  0.00D+00  NBF=    25
 NBsUse=    25 1.00D-04 EigRej=  0.00D+00 NBFU=    25
 Simple Huckel Guess.
 Overlap will be assumed to be unity.
 Keep J ints in memory in canonical form, NReq=884130.
 Requested convergence on RMS density matrix=1.00D-08 within 128 cycles.
 Requested convergence on MAX density matrix=1.00D-06.
 Requested convergence on             energy=1.00D-06.
 No special actions if energy rises.
 SCF Done:  E(RPM6) = -0.130249529743     A.U. after   14 cycles
            NFock= 13  Conv=0.31D-08     -V/T= 0.9922

 **********************************************************************

            Population analysis using the SCF density.

 **********************************************************************

 Orbital symmetries:
       Occupied  (A) (A) (A) (A) (A) (A) (A) (A) (A) (A) (A) (A)
                 (A) (A) (A)
       Virtual   (A) (A) (A) (A) (A) (A) (A) (A) (A) (A)
 The electronic state is 1-A.
 Alpha  occ. eigenvalues --   -1.20097  -1.17303  -1.14500  -0.95653  -0.78497
 Alpha  occ. eigenvalues --   -0.67372  -0.66837  -0.62427  -0.58638  -0.57174
 Alpha  occ. eigenvalues --   -0.51282  -0.50161  -0.45294  -0.41358  -0.36365
 Alpha virt. eigenvalues --    0.02253   0.05699   0.09095   0.11898   0.15183
 Alpha virt. eigenvalues --    0.16940   0.17675   0.19497   0.20300   0.24417
          Condensed to atoms (all electrons):
               1          2          3          4          5          6
     1  C    3.391742   0.000000   0.000000   0.000000   0.000000   0.000000
     2  O    0.000000   6.464984   0.000000   0.000000   0.000000   0.000000
     3  O    0.000000   0.000000   6.506200   0.000000   0.000000   0.000000
     4  H    0.000000   0.000000   0.000000   0.669007   0.000000   0.000000
     5  C    0.000000   0.000000   0.000000   0.000000   4.249932   0.000000
     6  H    0.000000   0.000000   0.000000   0.000000   0.000000   0.838360
     7  H    0.000000   0.000000   0.000000   0.000000   0.000000   0.000000
     8  N    0.000000   0.000000   0.000000   0.000000   0.000000   0.000000
     9  H    0.000000   0.000000   0.000000   0.000000   0.000000   0.000000
    10  H    0.000000   0.000000   0.000000   0.000000   0.000000   0.000000
               7          8          9         10
     1  C    0.000000   0.000000   0.000000   0.000000
     2  O    0.000000   0.000000   0.000000   0.000000
     3  O    0.000000   0.000000   0.000000   0.000000
     4  H    0.000000   0.000000   0.000000   0.000000
     5  C    0.000000   0.000000   0.000000   0.000000
     6  H    0.000000   0.000000   0.000000   0.000000
     7  H    0.839120   0.000000   0.000000   0.000000
     8  N    0.000000   5.467153   0.000000   0.000000
     9  H    0.000000   0.000000   0.786877   0.000000
    10  H    0.000000   0.000000   0.000000   0.786624
 Mulliken charges:
               1
     1  C    0.608258
     2  O   -0.464984
     3  O   -0.506200
     4  H    0.330993
     5  C   -0.249932
     6  H    0.161640
     7  H    0.160880
     8  N   -0.467153
     9  H    0.213123
    10  H    0.213376
 Sum of Mulliken charges =   0.00000
 Mulliken charges with hydrogens summed into heavy atoms:
               1
     1  C    0.608258
     2  O   -0.464984
     3  O   -0.175207
     5  C    0.072588
     8  N   -0.040655
 Charge=              0.0000 electrons
 Dipole moment (field-independent basis, Debye):
    X=              1.1029    Y=             -3.3215    Z=              0.0413  Tot=              3.5001
 N-N= 1.249548659604D+02 E-N=-2.122304033761D+02  KE=-1.668068819225D+01
 Calling FoFJK, ICntrl=      2127 FMM=F ISym2X=0 I1Cent= 0 IOpClX= 0 NMat=1 NMatS=1 NMatT=0.
 ***** Axes restored to original set *****
 -------------------------------------------------------------------
 Center     Atomic                   Forces (Hartrees/Bohr)
 Number     Number              X              Y              Z
 -------------------------------------------------------------------
      1        6           0.043581885    0.030861243    0.002465737
      2        8          -0.009506867   -0.012900043   -0.000786821
      3        8           0.000947914   -0.002822160   -0.000203055
      4        1          -0.027026396   -0.008193411   -0.000419195
      5        6          -0.011842727    0.015134830   -0.001737319
      6        1          -0.001467119   -0.017203646    0.017746513
      7        1          -0.000474870   -0.018305618   -0.016808933
      8        7          -0.005703899    0.004410501   -0.000246506
      9        1           0.005852640    0.004373541   -0.005581139
     10        1           0.005639439    0.004644763    0.005570718
 -------------------------------------------------------------------
 Cartesian Forces:  Max     0.043581885 RMS     0.013839754

 GradGradGradGradGradGradGradGradGradGradGradGradGradGradGradGradGradGrad
 Berny optimization.
 FormGI is forming the generalized inverse of G from B-inverse, IUseBI=4.
 Internal  Forces:  Max     0.031026794 RMS     0.011179561
 Search for a local minimum.
 Step number   1 out of a maximum of   46
 All quantities printed in internal units (Hartrees-Bohrs-Radians)
 Mixed Optimization -- RFO/linear search
 Second derivative matrix not updated -- first step.
 ITU=  0
     Eigenvalues ---    0.00237   0.00634   0.00727   0.02273   0.04146
     Eigenvalues ---    0.05224   0.06479   0.09333   0.12888   0.16000
     Eigenvalues ---    0.16000   0.16000   0.22021   0.24997   0.25000
     Eigenvalues ---    0.28519   0.34570   0.37230   0.37230   0.47688
     Eigenvalues ---    0.47688   0.53754   0.54423   1.00664
 RFO step:  Lambda=-1.60838575D-02 EMin= 2.36824147D-03
 Linear search not attempted -- first point.
 Iteration  1 RMS(Cart)=  0.06355352 RMS(Int)=  0.00423278
 Iteration  2 RMS(Cart)=  0.00441878 RMS(Int)=  0.00091215
 Iteration  3 RMS(Cart)=  0.00002012 RMS(Int)=  0.00091204
 Iteration  4 RMS(Cart)=  0.00000001 RMS(Int)=  0.00091204
 Variable       Old X    -DE/DX   Delta X   Delta X   Delta X     New X
                                 (Linear)    (Quad)   (Total)
    R1        2.28374  -0.00874   0.00000  -0.00854  -0.00854   2.27520
    R2        2.56257   0.02420   0.00000   0.04371   0.04371   2.60628
    R3        2.91018  -0.00591   0.00000  -0.01962  -0.01962   2.89056
    R4        1.82348   0.02254   0.00000   0.04023   0.04023   1.86371
    R5        2.02201   0.02351   0.00000   0.06053   0.06053   2.08254
    R6        2.02201   0.02362   0.00000   0.06083   0.06083   2.08283
    R7        2.79679   0.01433   0.00000   0.03962   0.03962   2.83641
    R8        1.88973   0.00790   0.00000   0.01603   0.01603   1.90576
    R9        1.88973   0.00789   0.00000   0.01600   0.01600   1.90573
    A1        2.15741  -0.01245   0.00000  -0.04662  -0.04677   2.11065
    A2        2.19602   0.01826   0.00000   0.06879   0.06864   2.26466
    A3        1.92955  -0.00579   0.00000  -0.02157  -0.02172   1.90783
    A4        1.84399   0.03103   0.00000   0.17620   0.17620   2.02019
    A5        1.91063  -0.00217   0.00000  -0.03108  -0.03083   1.87981
    A6        1.91063  -0.00186   0.00000  -0.02805  -0.02781   1.88282
    A7        1.91063  -0.00744   0.00000  -0.02826  -0.02766   1.88297
    A8        1.91063  -0.00312   0.00000  -0.02395  -0.02669   1.88394
    A9        1.91063   0.00734   0.00000   0.05556   0.05466   1.96529
   A10        1.91063   0.00724   0.00000   0.05579   0.05493   1.96556
   A11        1.91063   0.00670   0.00000   0.04854   0.04705   1.95769
   A12        1.91063   0.00671   0.00000   0.04859   0.04711   1.95774
   A13        1.91063  -0.00402   0.00000  -0.00188  -0.00447   1.90616
    D1       -0.00762  -0.00023   0.00000  -0.00817  -0.00722  -0.01484
    D2        3.11371   0.00082   0.00000   0.02343   0.02248   3.13619
    D3        2.06139   0.00340   0.00000   0.04529   0.04528   2.10666
    D4       -2.12740  -0.00289   0.00000  -0.02026  -0.01966  -2.14706
    D5       -0.03301   0.00029   0.00000   0.01359   0.01385  -0.01916
    D6       -1.05940   0.00277   0.00000   0.01451   0.01394  -1.04546
    D7        1.03500  -0.00351   0.00000  -0.05103  -0.05100   0.98400
    D8        3.12939  -0.00033   0.00000  -0.01719  -0.01749   3.11190
    D9       -2.08678   0.00152   0.00000   0.02671   0.02735  -2.05943
   D10        2.10201  -0.00177   0.00000  -0.03047  -0.03114   2.07087
   D11        2.10201   0.00424   0.00000   0.04807   0.04972   2.15173
   D12        0.00762   0.00095   0.00000  -0.00912  -0.00877  -0.00116
   D13        0.00761  -0.00087   0.00000   0.00921   0.00888   0.01650
   D14       -2.08678  -0.00416   0.00000  -0.04797  -0.04961  -2.13639
         Item               Value     Threshold  Converged?
 Maximum Force            0.031027     0.000450     NO 
 RMS     Force            0.011180     0.000300     NO 
 Maximum Displacement     0.193482     0.001800     NO 
 RMS     Displacement     0.064048     0.001200     NO 
 Predicted change in Energy=-8.699730D-03
 GradGradGradGradGradGradGradGradGradGradGradGradGradGradGradGradGradGrad

                          Input orientation:                          
 ---------------------------------------------------------------------
 Center     Atomic      Atomic             Coordinates (Angstroms)
 Number     Number       Type             X           Y           Z
 ---------------------------------------------------------------------
      1          6           0        0.096182    0.431162    0.012359
      2          8           0       -0.360125    1.545182   -0.005446
      3          8           0       -0.729327   -0.673472   -0.009214
      4          1           0       -1.697186   -0.484769   -0.026377
      5          6           0        1.554879   -0.028033    0.045064
      6          1           0        1.695498   -0.632892    0.955475
      7          1           0        1.723462   -0.681666   -0.826234
      8          7           0        2.423917    1.195604    0.025490
      9          1           0        3.013336    1.230667   -0.792064
     10          1           0        2.997665    1.268143    0.851660
 ---------------------------------------------------------------------
                    Distance matrix (angstroms):
                    1          2          3          4          5
     1  C    0.000000
     2  O    1.203982   0.000000
     3  O    1.379183   2.249166   0.000000
     4  H    2.014100   2.430817   0.986233   0.000000
     5  C    1.529617   2.478870   2.374265   3.284759   0.000000
     6  H    2.139974   3.145308   2.609989   3.535008   1.102032
     7  H    2.142351   3.158145   2.585298   3.518434   1.102187
     8  N    2.450081   2.806075   3.665733   4.450825   1.500966
     9  H    3.129871   3.478207   4.271548   5.071293   2.100525
    10  H    3.134257   3.476512   4.289690   5.087758   2.100548
                    6          7          8          9         10
     6  H    0.000000
     7  H    1.782596   0.000000
     8  N    2.176893   2.177203   0.000000
     9  H    2.874620   2.306937   1.008483   0.000000
    10  H    2.306589   2.870658   1.008466   1.644226   0.000000
 Stoichiometry    C2H5NO2
 Framework group  C1[X(C2H5NO2)]
 Deg. of freedom    24
 Full point group                 C1      NOp   1
 Largest Abelian subgroup         C1      NOp   1
 Largest concise Abelian subgroup C1      NOp   1
                         Standard orientation:                         
 ---------------------------------------------------------------------
 Center     Atomic      Atomic             Coordinates (Angstroms)
 Number     Number       Type             X           Y           Z
 ---------------------------------------------------------------------
      1          6           0       -0.536085    0.131140    0.006561
      2          8           0       -0.648932    1.329818    0.003537
      3          8           0       -1.647335   -0.685564   -0.009688
      4          1           0       -2.518640   -0.223523   -0.010426
      5          6           0        0.726354   -0.732533    0.013309
      6          1           0        0.696802   -1.362228    0.917238
      7          1           0        0.686284   -1.397222   -0.864984
      8          7           0        1.913319    0.185835   -0.011446
      9          1           0        2.476818    0.057153   -0.837853
     10          1           0        2.494024    0.079299    0.806134
 ---------------------------------------------------------------------
 Rotational constants (GHZ):     10.1728391      3.7774934      2.8468080
 Standard basis: VSTO-6G (5D, 7F)
 There are    25 symmetry adapted cartesian basis functions of A   symmetry.
 There are    25 symmetry adapted basis functions of A   symmetry.
    25 basis functions,   150 primitive gaussians,    25 cartesian basis functions
    15 alpha electrons       15 beta electrons
       nuclear repulsion energy       124.3547182016 Hartrees.
 Integral buffers will be    262144 words long.
 Regular integral format.
 Two-electron integral symmetry is turned off.
 Do NDO integrals.
 One-electron integrals computed using PRISM.
 NBasis=    25 RedAO= F EigKep=  0.00D+00  NBF=    25
 NBsUse=    25 1.00D-04 EigRej=  0.00D+00 NBFU=    25
 Initial guess from the checkpoint file:  "D:\mindmap\gaussian\calculate\opt_freq\gly\gly.chk"
 B after Tr=     0.000000    0.000000    0.000000
         Rot=    0.999999   -0.000079   -0.000142    0.001107 Ang=  -0.13 deg.
 Overlap will be assumed to be unity.
 Keep J ints in memory in canonical form, NReq=884130.
 Requested convergence on RMS density matrix=1.00D-08 within 128 cycles.
 Requested convergence on MAX density matrix=1.00D-06.
 Requested convergence on             energy=1.00D-06.
 No special actions if energy rises.
 SCF Done:  E(RPM6) = -0.137681189009     A.U. after   12 cycles
            NFock= 11  Conv=0.33D-08     -V/T= 0.9917
 Calling FoFJK, ICntrl=      2127 FMM=F ISym2X=0 I1Cent= 0 IOpClX= 0 NMat=1 NMatS=1 NMatT=0.
 ***** Axes restored to original set *****
 -------------------------------------------------------------------
 Center     Atomic                   Forces (Hartrees/Bohr)
 Number     Number              X              Y              Z
 -------------------------------------------------------------------
      1        6           0.006120772    0.015745854   -0.001276690
      2        8          -0.003900081   -0.008187446    0.000521456
      3        8           0.003614094   -0.005325492    0.000535008
      4        1           0.001086573    0.003991481   -0.000094679
      5        6           0.002241498    0.014946146   -0.000171001
      6        1           0.001568546   -0.003700257    0.003758245
      7        1           0.001475703   -0.003827357   -0.003452678
      8        7          -0.011747107   -0.010372757    0.000109214
      9        1          -0.000214598   -0.001671359   -0.001057668
     10        1          -0.000245400   -0.001598815    0.001128790
 -------------------------------------------------------------------
 Cartesian Forces:  Max     0.015745854 RMS     0.005684150

 GradGradGradGradGradGradGradGradGradGradGradGradGradGradGradGradGradGrad
 Berny optimization.
 Using GEDIIS/GDIIS optimizer.
 FormGI is forming the generalized inverse of G from B-inverse, IUseBI=4.
 Internal  Forces:  Max     0.018192264 RMS     0.004557884
 Search for a local minimum.
 Step number   2 out of a maximum of   46
 All quantities printed in internal units (Hartrees-Bohrs-Radians)
 Mixed Optimization -- RFO/linear search
 Update second derivatives using D2CorX and points    1    2
 DE= -7.43D-03 DEPred=-8.70D-03 R= 8.54D-01
 TightC=F SS=  1.41D+00  RLast= 2.80D-01 DXNew= 5.0454D-01 8.4110D-01
 Trust test= 8.54D-01 RLast= 2.80D-01 DXMaxT set to 5.05D-01
 ITU=  1  0
 Use linear search instead of GDIIS.
     Eigenvalues ---    0.00237   0.00634   0.00672   0.02273   0.03619
     Eigenvalues ---    0.05339   0.06385   0.09274   0.12746   0.15914
     Eigenvalues ---    0.16000   0.17537   0.21193   0.22872   0.25231
     Eigenvalues ---    0.28364   0.34282   0.37230   0.40891   0.47688
     Eigenvalues ---    0.47724   0.54126   0.55897   1.00312
 RFO step:  Lambda=-2.46291223D-03 EMin= 2.36833466D-03
 Quartic linear search produced a step of -0.03712.
 Iteration  1 RMS(Cart)=  0.02571071 RMS(Int)=  0.00066846
 Iteration  2 RMS(Cart)=  0.00065871 RMS(Int)=  0.00025717
 Iteration  3 RMS(Cart)=  0.00000033 RMS(Int)=  0.00025717
 Variable       Old X    -DE/DX   Delta X   Delta X   Delta X     New X
                                 (Linear)    (Quad)   (Total)
    R1        2.27520  -0.00611   0.00032  -0.00752  -0.00721   2.26799
    R2        2.60628  -0.00175  -0.00162   0.00558   0.00395   2.61023
    R3        2.89056  -0.00473   0.00073  -0.01967  -0.01895   2.87161
    R4        1.86371  -0.00030  -0.00149   0.00747   0.00598   1.86969
    R5        2.08254   0.00534  -0.00225   0.02569   0.02345   2.10599
    R6        2.08283   0.00522  -0.00226   0.02547   0.02321   2.10604
    R7        2.83641  -0.01819  -0.00147  -0.04239  -0.04386   2.79255
    R8        1.90576   0.00067  -0.00060   0.00454   0.00394   1.90970
    R9        1.90573   0.00067  -0.00059   0.00452   0.00393   1.90966
    A1        2.11065  -0.00367   0.00174  -0.02310  -0.02159   2.08905
    A2        2.26466   0.01158  -0.00255   0.05773   0.05492   2.31959
    A3        1.90783  -0.00790   0.00081  -0.03426  -0.03370   1.87413
    A4        2.02019  -0.00769  -0.00654  -0.01103  -0.01757   2.00262
    A5        1.87981   0.00137   0.00114   0.00346   0.00463   1.88443
    A6        1.88282   0.00116   0.00103   0.00189   0.00295   1.88577
    A7        1.88297  -0.00231   0.00103  -0.01404  -0.01301   1.86996
    A8        1.88394  -0.00103   0.00099  -0.01436  -0.01330   1.87065
    A9        1.96529   0.00042  -0.00203   0.01130   0.00931   1.97460
   A10        1.96556   0.00051  -0.00204   0.01137   0.00936   1.97492
   A11        1.95769  -0.00245  -0.00175  -0.01139  -0.01320   1.94448
   A12        1.95774  -0.00242  -0.00175  -0.01120  -0.01302   1.94472
   A13        1.90616   0.00192   0.00017  -0.00021  -0.00017   1.90599
    D1       -0.01484   0.00035   0.00027   0.02427   0.02360   0.00876
    D2        3.13619  -0.00012  -0.00083  -0.01290  -0.01280   3.12339
    D3        2.10666  -0.00026  -0.00168  -0.01677  -0.01870   2.08796
    D4       -2.14706  -0.00017   0.00073  -0.03081  -0.03036  -2.17741
    D5       -0.01916  -0.00022  -0.00051  -0.02422  -0.02499  -0.04415
    D6       -1.04546   0.00014  -0.00052   0.02406   0.02381  -1.02165
    D7        0.98400   0.00023   0.00189   0.01002   0.01216   0.99616
    D8        3.11190   0.00018   0.00065   0.01661   0.01752   3.12942
    D9       -2.05943  -0.00051  -0.00102  -0.00873  -0.00971  -2.06913
   D10        2.07087   0.00064   0.00116   0.00862   0.00975   2.08061
   D11        2.15173  -0.00095  -0.00185  -0.01059  -0.01242   2.13932
   D12       -0.00116   0.00020   0.00033   0.00676   0.00703   0.00588
   D13        0.01650  -0.00028  -0.00033  -0.00876  -0.00904   0.00745
   D14       -2.13639   0.00087   0.00184   0.00859   0.01041  -2.12599
         Item               Value     Threshold  Converged?
 Maximum Force            0.018192     0.000450     NO 
 RMS     Force            0.004558     0.000300     NO 
 Maximum Displacement     0.070253     0.001800     NO 
 RMS     Displacement     0.025949     0.001200     NO 
 Predicted change in Energy=-1.261298D-03
 GradGradGradGradGradGradGradGradGradGradGradGradGradGradGradGradGradGrad

                          Input orientation:                          
 ---------------------------------------------------------------------
 Center     Atomic      Atomic             Coordinates (Angstroms)
 Number     Number       Type             X           Y           Z
 ---------------------------------------------------------------------
      1          6           0        0.110503    0.457377   -0.002368
      2          8           0       -0.392496    1.547054   -0.003562
      3          8           0       -0.692150   -0.666751   -0.004494
      4          1           0       -1.664018   -0.481616   -0.014825
      5          6           0        1.553971   -0.015626    0.040366
      6          1           0        1.686033   -0.634310    0.957844
      7          1           0        1.724256   -0.684222   -0.834862
      8          7           0        2.408055    1.190222    0.025284
      9          1           0        3.005218    1.209160   -0.789755
     10          1           0        2.978929    1.248637    0.857085
 ---------------------------------------------------------------------
                    Distance matrix (angstroms):
                    1          2          3          4          5
     1  C    0.000000
     2  O    1.200169   0.000000
     3  O    1.381275   2.233994   0.000000
     4  H    2.007682   2.394242   0.989398   0.000000
     5  C    1.519591   2.496524   2.339025   3.252021   0.000000
     6  H    2.143848   3.162742   2.565717   3.491739   1.114440
     7  H    2.144876   3.185952   2.555158   3.491978   1.114469
     8  N    2.411757   2.823339   3.613932   4.402093   1.477754
     9  H    3.092658   3.503817   4.219740   5.026032   2.072516
    10  H    3.097196   3.492317   4.229404   5.031000   2.072655
                    6          7          8          9         10
     6  H    0.000000
     7  H    1.793808   0.000000
     8  N    2.172534   2.172780   0.000000
     9  H    2.862295   2.286437   1.010570   0.000000
    10  H    2.286312   2.858816   1.010546   1.647523   0.000000
 Stoichiometry    C2H5NO2
 Framework group  C1[X(C2H5NO2)]
 Deg. of freedom    24
 Full point group                 C1      NOp   1
 Largest Abelian subgroup         C1      NOp   1
 Largest concise Abelian subgroup C1      NOp   1
                         Standard orientation:                         
 ---------------------------------------------------------------------
 Center     Atomic      Atomic             Coordinates (Angstroms)
 Number     Number       Type             X           Y           Z
 ---------------------------------------------------------------------
      1          6           0       -0.518541    0.140196   -0.007623
      2          8           0       -0.698441    1.326739    0.004994
      3          8           0       -1.602255   -0.716237   -0.005041
      4          1           0       -2.484276   -0.267990   -0.000310
      5          6           0        0.736711   -0.716036    0.011537
      6          1           0        0.702490   -1.356003    0.923264
      7          1           0        0.703632   -1.396997   -0.870075
      8          7           0        1.892352    0.204752   -0.008495
      9          1           0        2.461299    0.064832   -0.831886
     10          1           0        2.466951    0.093914    0.815370
 ---------------------------------------------------------------------
 Rotational constants (GHZ):     10.0844623      3.8573143      2.8854766
 Standard basis: VSTO-6G (5D, 7F)
 There are    25 symmetry adapted cartesian basis functions of A   symmetry.
 There are    25 symmetry adapted basis functions of A   symmetry.
    25 basis functions,   150 primitive gaussians,    25 cartesian basis functions
    15 alpha electrons       15 beta electrons
       nuclear repulsion energy       124.6660644685 Hartrees.
 Integral buffers will be    262144 words long.
 Regular integral format.
 Two-electron integral symmetry is turned off.
 Do NDO integrals.
 One-electron integrals computed using PRISM.
 NBasis=    25 RedAO= F EigKep=  0.00D+00  NBF=    25
 NBsUse=    25 1.00D-04 EigRej=  0.00D+00 NBFU=    25
 Initial guess from the checkpoint file:  "D:\mindmap\gaussian\calculate\opt_freq\gly\gly.chk"
 B after Tr=     0.000000    0.000000    0.000000
         Rot=    0.999961    0.000450    0.000273   -0.008829 Ang=   1.01 deg.
 Overlap will be assumed to be unity.
 Keep J ints in memory in canonical form, NReq=884130.
 Requested convergence on RMS density matrix=1.00D-08 within 128 cycles.
 Requested convergence on MAX density matrix=1.00D-06.
 Requested convergence on             energy=1.00D-06.
 No special actions if energy rises.
 SCF Done:  E(RPM6) = -0.139006890514     A.U. after   11 cycles
            NFock= 10  Conv=0.75D-08     -V/T= 0.9916
 Calling FoFJK, ICntrl=      2127 FMM=F ISym2X=0 I1Cent= 0 IOpClX= 0 NMat=1 NMatS=1 NMatT=0.
 ***** Axes restored to original set *****
 -------------------------------------------------------------------
 Center     Atomic                   Forces (Hartrees/Bohr)
 Number     Number              X              Y              Z
 -------------------------------------------------------------------
      1        6           0.000367729    0.006408218    0.002817707
      2        8          -0.001612947   -0.000585981   -0.001060738
      3        8          -0.001779430   -0.006600901   -0.000614394
      4        1           0.001346216    0.002054692   -0.000131549
      5        6          -0.001127664    0.000858273   -0.001141620
      6        1           0.000113087   -0.001167162   -0.000446979
      7        1           0.000292408   -0.001256635    0.000592513
      8        7           0.000587268   -0.001250469   -0.000034270
      9        1           0.000942876    0.000741163   -0.000495878
     10        1           0.000870458    0.000798802    0.000515207
 -------------------------------------------------------------------
 Cartesian Forces:  Max     0.006600901 RMS     0.001987750

 GradGradGradGradGradGradGradGradGradGradGradGradGradGradGradGradGradGrad
 Berny optimization.
 Using GEDIIS/GDIIS optimizer.
 FormGI is forming the generalized inverse of G from B-inverse, IUseBI=4.
 Internal  Forces:  Max     0.004245588 RMS     0.001448356
 Search for a local minimum.
 Step number   3 out of a maximum of   46
 All quantities printed in internal units (Hartrees-Bohrs-Radians)
 Mixed Optimization -- RFO/linear search
 Update second derivatives using D2CorX and points    1    2    3
 DE= -1.33D-03 DEPred=-1.26D-03 R= 1.05D+00
 TightC=F SS=  1.41D+00  RLast= 1.16D-01 DXNew= 8.4853D-01 3.4920D-01
 Trust test= 1.05D+00 RLast= 1.16D-01 DXMaxT set to 5.05D-01
 ITU=  1  1  0
 Use linear search instead of GDIIS.
     Eigenvalues ---    0.00237   0.00633   0.00679   0.02270   0.03831
     Eigenvalues ---    0.05384   0.06054   0.08939   0.12683   0.14927
     Eigenvalues ---    0.16000   0.17975   0.19157   0.22697   0.25189
     Eigenvalues ---    0.29140   0.35370   0.37230   0.41238   0.47688
     Eigenvalues ---    0.47876   0.54871   0.57541   1.00606
 RFO step:  Lambda=-7.31401035D-04 EMin= 2.36629864D-03
 Quartic linear search produced a step of  0.05745.
 Iteration  1 RMS(Cart)=  0.04252672 RMS(Int)=  0.00190233
 Iteration  2 RMS(Cart)=  0.00232249 RMS(Int)=  0.00097152
 Iteration  3 RMS(Cart)=  0.00000198 RMS(Int)=  0.00097152
 Iteration  4 RMS(Cart)=  0.00000000 RMS(Int)=  0.00097152
 Variable       Old X    -DE/DX   Delta X   Delta X   Delta X     New X
                                 (Linear)    (Quad)   (Total)
    R1        2.26799   0.00015  -0.00041  -0.00199  -0.00241   2.26559
    R2        2.61023   0.00395   0.00023   0.01045   0.01068   2.62091
    R3        2.87161   0.00196  -0.00109   0.00178   0.00069   2.87231
    R4        1.86969  -0.00094   0.00034   0.00122   0.00156   1.87126
    R5        2.10599   0.00029   0.00135   0.00903   0.01038   2.11637
    R6        2.10604   0.00033   0.00133   0.00910   0.01043   2.11647
    R7        2.79255   0.00162  -0.00252  -0.00453  -0.00705   2.78550
    R8        1.90970   0.00097   0.00023   0.00376   0.00399   1.91369
    R9        1.90966   0.00096   0.00023   0.00374   0.00396   1.91362
    A1        2.08905  -0.00075  -0.00124  -0.00899  -0.01303   2.07602
    A2        2.31959   0.00320   0.00316   0.03109   0.03118   2.35077
    A3        1.87413  -0.00243  -0.00194  -0.01822  -0.02305   1.85109
    A4        2.00262  -0.00425  -0.00101  -0.02570  -0.02671   1.97591
    A5        1.88443  -0.00073   0.00027  -0.00226  -0.00205   1.88238
    A6        1.88577  -0.00042   0.00017   0.00092   0.00102   1.88679
    A7        1.86996   0.00225  -0.00075   0.01055   0.00973   1.87970
    A8        1.87065  -0.00068  -0.00076  -0.02063  -0.02140   1.84925
    A9        1.97460  -0.00017   0.00053   0.00568   0.00621   1.98081
   A10        1.97492  -0.00030   0.00054   0.00554   0.00604   1.98096
   A11        1.94448   0.00114  -0.00076   0.00863   0.00783   1.95231
   A12        1.94472   0.00114  -0.00075   0.00865   0.00786   1.95257
   A13        1.90599  -0.00091  -0.00001  -0.00145  -0.00154   1.90446
    D1        0.00876  -0.00036   0.00136  -0.05714  -0.05387  -0.04511
    D2        3.12339   0.00059  -0.00074   0.07040   0.06776  -3.09204
    D3        2.08796   0.00115  -0.00107   0.06931   0.06865   2.15662
    D4       -2.17741  -0.00024  -0.00174   0.04445   0.04314  -2.13428
    D5       -0.04415   0.00046  -0.00144   0.05772   0.05672   0.01257
    D6       -1.02165   0.00013   0.00137  -0.08087  -0.07994  -1.10159
    D7        0.99616  -0.00126   0.00070  -0.10573  -0.10545   0.89071
    D8        3.12942  -0.00056   0.00101  -0.09246  -0.09187   3.03755
    D9       -2.06913   0.00011  -0.00056   0.00068   0.00014  -2.06899
   D10        2.08061  -0.00035   0.00056  -0.00975  -0.00921   2.07141
   D11        2.13932  -0.00038  -0.00071  -0.00681  -0.00753   2.13179
   D12        0.00588  -0.00083   0.00040  -0.01724  -0.01688  -0.01100
   D13        0.00745   0.00089  -0.00052   0.01205   0.01158   0.01903
   D14       -2.12599   0.00044   0.00060   0.00162   0.00222  -2.12376
         Item               Value     Threshold  Converged?
 Maximum Force            0.004246     0.000450     NO 
 RMS     Force            0.001448     0.000300     NO 
 Maximum Displacement     0.136315     0.001800     NO 
 RMS     Displacement     0.043114     0.001200     NO 
 Predicted change in Energy=-3.897526D-04
 GradGradGradGradGradGradGradGradGradGradGradGradGradGradGradGradGradGrad

                          Input orientation:                          
 ---------------------------------------------------------------------
 Center     Atomic      Atomic             Coordinates (Angstroms)
 Number     Number       Type             X           Y           Z
 ---------------------------------------------------------------------
      1          6           0        0.106232    0.470801    0.061782
      2          8           0       -0.427054    1.543806    0.021567
      3          8           0       -0.675219   -0.671144   -0.032330
      4          1           0       -1.644727   -0.477190   -0.086960
      5          6           0        1.549395   -0.006225    0.063282
      6          1           0        1.702635   -0.633726    0.978164
      7          1           0        1.689368   -0.694509   -0.809098
      8          7           0        2.415383    1.185670    0.016470
      9          1           0        2.992354    1.200077   -0.815645
     10          1           0        3.009933    1.252365    0.833480
 ---------------------------------------------------------------------
                    Distance matrix (angstroms):
                    1          2          3          4          5
     1  C    0.000000
     2  O    1.198896   0.000000
     3  O    1.386925   2.229460   0.000000
     4  H    1.996665   2.361976   0.990226   0.000000
     5  C    1.519959   2.512108   2.323827   3.232151   0.000000
     6  H    2.146680   3.192538   2.583929   3.516223   1.119932
     7  H    2.150046   3.190502   2.489014   3.418319   1.119989
     8  N    2.417699   2.864915   3.605823   4.388655   1.474022
     9  H    3.103453   3.537149   4.191199   4.984649   2.076008
    10  H    3.104487   3.543589   4.246159   5.050191   2.076156
                    6          7          8          9         10
     6  H    0.000000
     7  H    1.788345   0.000000
     8  N    2.177858   2.178011   0.000000
     9  H    2.871230   2.299406   1.012679   0.000000
    10  H    2.299413   2.869194   1.012642   1.650048   0.000000
 Stoichiometry    C2H5NO2
 Framework group  C1[X(C2H5NO2)]
 Deg. of freedom    24
 Full point group                 C1      NOp   1
 Largest Abelian subgroup         C1      NOp   1
 Largest concise Abelian subgroup C1      NOp   1
                         Standard orientation:                         
 ---------------------------------------------------------------------
 Center     Atomic      Atomic             Coordinates (Angstroms)
 Number     Number       Type             X           Y           Z
 ---------------------------------------------------------------------
      1          6           0       -0.516757    0.148095    0.046487
      2          8           0       -0.741612    1.324933    0.003521
      3          8           0       -1.578356   -0.741312   -0.027831
      4          1           0       -2.460386   -0.293411   -0.072045
      5          6           0        0.744283   -0.700374    0.034144
      6          1           0        0.735870   -1.341294    0.952511
      7          1           0        0.680983   -1.405332   -0.833844
      8          7           0        1.898715    0.213623   -0.033942
      9          1           0        2.446174    0.067697   -0.873294
     10          1           0        2.500935    0.121689    0.774961
 ---------------------------------------------------------------------
 Rotational constants (GHZ):     10.0049418      3.8490095      2.8765606
 Standard basis: VSTO-6G (5D, 7F)
 There are    25 symmetry adapted cartesian basis functions of A   symmetry.
 There are    25 symmetry adapted basis functions of A   symmetry.
    25 basis functions,   150 primitive gaussians,    25 cartesian basis functions
    15 alpha electrons       15 beta electrons
       nuclear repulsion energy       124.5936352976 Hartrees.
 Integral buffers will be    262144 words long.
 Regular integral format.
 Two-electron integral symmetry is turned off.
 Do NDO integrals.
 One-electron integrals computed using PRISM.
 NBasis=    25 RedAO= F EigKep=  0.00D+00  NBF=    25
 NBsUse=    25 1.00D-04 EigRej=  0.00D+00 NBFU=    25
 Initial guess from the checkpoint file:  "D:\mindmap\gaussian\calculate\opt_freq\gly\gly.chk"
 B after Tr=     0.000000    0.000000    0.000000
         Rot=    0.999978    0.001623   -0.001112   -0.006400 Ang=   0.77 deg.
 Overlap will be assumed to be unity.
 Keep J ints in memory in canonical form, NReq=884130.
 Requested convergence on RMS density matrix=1.00D-08 within 128 cycles.
 Requested convergence on MAX density matrix=1.00D-06.
 Requested convergence on             energy=1.00D-06.
 No special actions if energy rises.
 SCF Done:  E(RPM6) = -0.138771845160     A.U. after   11 cycles
            NFock= 10  Conv=0.98D-08     -V/T= 0.9916
 Calling FoFJK, ICntrl=      2127 FMM=F ISym2X=0 I1Cent= 0 IOpClX= 0 NMat=1 NMatS=1 NMatT=0.
 ***** Axes restored to original set *****
 -------------------------------------------------------------------
 Center     Atomic                   Forces (Hartrees/Bohr)
 Number     Number              X              Y              Z
 -------------------------------------------------------------------
      1        6           0.001662105    0.000809328   -0.011164036
      2        8           0.000056424    0.001684571    0.004436775
      3        8          -0.002946911   -0.003615407    0.002425426
      4        1           0.000118386   -0.000066784    0.000272632
      5        6          -0.000192092   -0.001954350    0.004350222
      6        1           0.000230608    0.000829219   -0.001887417
      7        1          -0.000622311    0.001288648    0.001580533
      8        7           0.001872923    0.000808618    0.000021682
      9        1          -0.000109950    0.000107182    0.000329274
     10        1          -0.000069181    0.000108974   -0.000365090
 -------------------------------------------------------------------
 Cartesian Forces:  Max     0.011164036 RMS     0.002673227

 GradGradGradGradGradGradGradGradGradGradGradGradGradGradGradGradGradGrad
 Berny optimization.
 Using GEDIIS/GDIIS optimizer.
 FormGI is forming the generalized inverse of G from B-inverse, IUseBI=4.
 Internal  Forces:  Max     0.004442413 RMS     0.001415797
 Search for a local minimum.
 Step number   4 out of a maximum of   46
 All quantities printed in internal units (Hartrees-Bohrs-Radians)
 Mixed Optimization -- RFO/linear search
 Update second derivatives using D2CorX and points    1    2    4    3
 DE=  2.35D-04 DEPred=-3.90D-04 R=-6.03D-01
 Trust test=-6.03D-01 RLast= 2.18D-01 DXMaxT set to 2.52D-01
 ITU= -1  1  1  0
 Use linear search instead of GDIIS.
 Energy rises -- skip Quadratic/GDIIS search.
 Quartic linear search produced a step of -0.62213.
 Iteration  1 RMS(Cart)=  0.02718339 RMS(Int)=  0.00067230
 Iteration  2 RMS(Cart)=  0.00089061 RMS(Int)=  0.00022800
 Iteration  3 RMS(Cart)=  0.00000033 RMS(Int)=  0.00022800
 Variable       Old X    -DE/DX   Delta X   Delta X   Delta X     New X
                                 (Linear)    (Quad)   (Total)
    R1        2.26559   0.00133   0.00150   0.00000   0.00150   2.26708
    R2        2.62091   0.00444  -0.00664   0.00000  -0.00664   2.61427
    R3        2.87231   0.00068  -0.00043   0.00000  -0.00043   2.87187
    R4        1.87126  -0.00014  -0.00097   0.00000  -0.00097   1.87028
    R5        2.11637  -0.00197  -0.00646   0.00000  -0.00646   2.10991
    R6        2.11647  -0.00210  -0.00649   0.00000  -0.00649   2.10998
    R7        2.78550   0.00182   0.00439   0.00000   0.00439   2.78989
    R8        1.91369  -0.00033  -0.00248   0.00000  -0.00248   1.91121
    R9        1.91362  -0.00033  -0.00246   0.00000  -0.00246   1.91115
    A1        2.07602   0.00046   0.00811   0.00000   0.00878   2.08480
    A2        2.35077  -0.00124  -0.01940   0.00000  -0.01871   2.33205
    A3        1.85109   0.00115   0.01434   0.00000   0.01502   1.86610
    A4        1.97591   0.00005   0.01662   0.00000   0.01662   1.99253
    A5        1.88238   0.00022   0.00128   0.00000   0.00129   1.88367
    A6        1.88679  -0.00090  -0.00063   0.00000  -0.00062   1.88618
    A7        1.87970   0.00124  -0.00606   0.00000  -0.00604   1.87366
    A8        1.84925   0.00001   0.01331   0.00000   0.01331   1.86256
    A9        1.98081  -0.00052  -0.00386   0.00000  -0.00386   1.97695
   A10        1.98096  -0.00009  -0.00376   0.00000  -0.00375   1.97721
   A11        1.95231   0.00016  -0.00487   0.00000  -0.00486   1.94745
   A12        1.95257   0.00026  -0.00489   0.00000  -0.00488   1.94769
   A13        1.90446  -0.00020   0.00096   0.00000   0.00097   1.90543
    D1       -0.04511   0.00140   0.03352   0.00000   0.03307  -0.01204
    D2       -3.09204  -0.00185  -0.04215   0.00000  -0.04170  -3.13374
    D3        2.15662  -0.00184  -0.04271   0.00000  -0.04283   2.11379
    D4       -2.13428  -0.00217  -0.02684   0.00000  -0.02696  -2.16123
    D5        0.01257  -0.00208  -0.03529   0.00000  -0.03541  -0.02284
    D6       -1.10159   0.00234   0.04973   0.00000   0.04985  -1.05173
    D7        0.89071   0.00201   0.06561   0.00000   0.06573   0.95643
    D8        3.03755   0.00211   0.05716   0.00000   0.05727   3.09482
    D9       -2.06899   0.00041  -0.00009   0.00000  -0.00009  -2.06908
   D10        2.07141   0.00037   0.00573   0.00000   0.00573   2.07714
   D11        2.13179  -0.00038   0.00468   0.00000   0.00469   2.13647
   D12       -0.01100  -0.00043   0.01050   0.00000   0.01051  -0.00049
   D13        0.01903   0.00008  -0.00720   0.00000  -0.00721   0.01182
   D14       -2.12376   0.00003  -0.00138   0.00000  -0.00139  -2.12515
         Item               Value     Threshold  Converged?
 Maximum Force            0.004442     0.000450     NO 
 RMS     Force            0.001416     0.000300     NO 
 Maximum Displacement     0.085029     0.001800     NO 
 RMS     Displacement     0.026972     0.001200     NO 
 Predicted change in Energy=-1.366778D-04
 GradGradGradGradGradGradGradGradGradGradGradGradGradGradGradGradGradGrad

                          Input orientation:                          
 ---------------------------------------------------------------------
 Center     Atomic      Atomic             Coordinates (Angstroms)
 Number     Number       Type             X           Y           Z
 ---------------------------------------------------------------------
      1          6           0        0.108921    0.462666    0.021836
      2          8           0       -0.405805    1.546198    0.005491
      3          8           0       -0.686312   -0.668749   -0.014603
      4          1           0       -1.657581   -0.480561   -0.041965
      5          6           0        1.552379   -0.011964    0.048951
      6          1           0        1.692420   -0.634077    0.965450
      7          1           0        1.711162   -0.687942   -0.825426
      8          7           0        2.411223    1.188559    0.022067
      9          1           0        3.000824    1.205822   -0.799478
     10          1           0        2.991072    1.249972    0.848389
 ---------------------------------------------------------------------
                    Distance matrix (angstroms):
                    1          2          3          4          5
     1  C    0.000000
     2  O    1.199688   0.000000
     3  O    1.383410   2.232729   0.000000
     4  H    2.003566   2.382635   0.989711   0.000000
     5  C    1.519730   2.502847   2.333912   3.245257   0.000000
     6  H    2.144929   3.174534   2.572950   3.501565   1.116515
     7  H    2.146842   3.188002   2.530946   3.464860   1.116555
     8  N    2.414025   2.839688   3.611878   4.398321   1.476344
     9  H    3.096763   3.516952   4.210109   5.011831   2.073844
    10  H    3.099974   3.512407   4.236673   5.039588   2.073986
                    6          7          8          9         10
     6  H    0.000000
     7  H    1.791784   0.000000
     8  N    2.174546   2.174761   0.000000
     9  H    2.865680   2.291341   1.011367   0.000000
    10  H    2.291253   2.862749   1.011338   1.648487   0.000000
 Stoichiometry    C2H5NO2
 Framework group  C1[X(C2H5NO2)]
 Deg. of freedom    24
 Full point group                 C1      NOp   1
 Largest Abelian subgroup         C1      NOp   1
 Largest concise Abelian subgroup C1      NOp   1
                         Standard orientation:                         
 ---------------------------------------------------------------------
 Center     Atomic      Atomic             Coordinates (Angstroms)
 Number     Number       Type             X           Y           Z
 ---------------------------------------------------------------------
      1          6           0       -0.517737    0.143130    0.012884
      2          8           0       -0.714811    1.326491    0.004492
      3          8           0       -1.593854   -0.725834   -0.013536
      4          1           0       -2.476192   -0.277712   -0.027394
      5          6           0        0.739768   -0.710225    0.019774
      6          1           0        0.715222   -1.351035    0.933757
      7          1           0        0.695160   -1.399815   -0.857250
      8          7           0        1.895220    0.207980   -0.017942
      9          1           0        2.456110    0.066202   -0.847498
     10          1           0        2.480286    0.103820    0.800382
 ---------------------------------------------------------------------
 Rotational constants (GHZ):     10.0536250      3.8528835      2.8808125
 Standard basis: VSTO-6G (5D, 7F)
 There are    25 symmetry adapted cartesian basis functions of A   symmetry.
 There are    25 symmetry adapted basis functions of A   symmetry.
    25 basis functions,   150 primitive gaussians,    25 cartesian basis functions
    15 alpha electrons       15 beta electrons
       nuclear repulsion energy       124.6312814793 Hartrees.
 Integral buffers will be    262144 words long.
 Regular integral format.
 Two-electron integral symmetry is turned off.
 Do NDO integrals.
 One-electron integrals computed using PRISM.
 NBasis=    25 RedAO= F EigKep=  0.00D+00  NBF=    25
 NBsUse=    25 1.00D-04 EigRej=  0.00D+00 NBFU=    25
 Lowest energy guess from the checkpoint file:  "D:\mindmap\gaussian\calculate\opt_freq\gly\gly.chk"
 B after Tr=     0.000000    0.000000    0.000000
         Rot=    0.999997    0.000526   -0.000430   -0.002387 Ang=   0.28 deg.
 B after Tr=     0.000000    0.000000    0.000000
         Rot=    0.999991   -0.001095    0.000682    0.004013 Ang=  -0.48 deg.
 Overlap will be assumed to be unity.
 Keep J ints in memory in canonical form, NReq=884130.
 Requested convergence on RMS density matrix=1.00D-08 within 128 cycles.
 Requested convergence on MAX density matrix=1.00D-06.
 Requested convergence on             energy=1.00D-06.
 No special actions if energy rises.
 SCF Done:  E(RPM6) = -0.139145698869     A.U. after    9 cycles
            NFock=  8  Conv=0.44D-08     -V/T= 0.9916
 Calling FoFJK, ICntrl=      2127 FMM=F ISym2X=0 I1Cent= 0 IOpClX= 0 NMat=1 NMatS=1 NMatT=0.
 ***** Axes restored to original set *****
 -------------------------------------------------------------------
 Center     Atomic                   Forces (Hartrees/Bohr)
 Number     Number              X              Y              Z
 -------------------------------------------------------------------
      1        6           0.000770555    0.004233542   -0.002487538
      2        8          -0.000894889    0.000131751    0.001028147
      3        8          -0.002090392   -0.005339183    0.000512493
      4        1           0.000896653    0.001276051    0.000063115
      5        6          -0.000894449   -0.000167430    0.000921921
      6        1           0.000161251   -0.000411161   -0.000997245
      7        1          -0.000079242   -0.000294669    0.000976450
      8        7           0.001063078   -0.000460117   -0.000001243
      9        1           0.000542763    0.000496620   -0.000187967
     10        1           0.000524672    0.000534597    0.000171868
 -------------------------------------------------------------------
 Cartesian Forces:  Max     0.005339183 RMS     0.001511935

 GradGradGradGradGradGradGradGradGradGradGradGradGradGradGradGradGradGrad
 Berny optimization.
 Using GEDIIS/GDIIS optimizer.
 FormGI is forming the generalized inverse of G from B-inverse, IUseBI=4.
 Internal  Forces:  Max     0.003994055 RMS     0.001087994
 Search for a local minimum.
 Step number   5 out of a maximum of   46
 All quantities printed in internal units (Hartrees-Bohrs-Radians)
 Mixed Optimization -- RFO/linear search
 Update second derivatives using D2CorX and points    1    2    4    3    5
 ITU=  0 -1  1  1  0
 Use linear search instead of GDIIS.
     Eigenvalues ---    0.00236   0.00633   0.02236   0.02766   0.03818
     Eigenvalues ---    0.05211   0.05457   0.08932   0.12758   0.13521
     Eigenvalues ---    0.16000   0.17757   0.18455   0.21818   0.25033
     Eigenvalues ---    0.28568   0.34813   0.37231   0.41384   0.47688
     Eigenvalues ---    0.47877   0.53618   0.57031   1.00446
 RFO step:  Lambda=-4.14880475D-04 EMin= 2.36473616D-03
 Quartic linear search produced a step of -0.00013.
 Iteration  1 RMS(Cart)=  0.01876346 RMS(Int)=  0.00037053
 Iteration  2 RMS(Cart)=  0.00041901 RMS(Int)=  0.00014754
 Iteration  3 RMS(Cart)=  0.00000011 RMS(Int)=  0.00014754
 Variable       Old X    -DE/DX   Delta X   Delta X   Delta X     New X
                                 (Linear)    (Quad)   (Total)
    R1        2.26708   0.00049   0.00000  -0.00045  -0.00045   2.26663
    R2        2.61427   0.00399   0.00000   0.01374   0.01374   2.62800
    R3        2.87187   0.00136   0.00000   0.00674   0.00674   2.87861
    R4        1.87028  -0.00064   0.00000  -0.00079  -0.00079   1.86949
    R5        2.10991  -0.00057   0.00000   0.00301   0.00301   2.11292
    R6        2.10998  -0.00060   0.00000   0.00298   0.00298   2.11296
    R7        2.78989   0.00170   0.00000   0.00371   0.00371   2.79360
    R8        1.91121   0.00048   0.00000   0.00316   0.00316   1.91437
    R9        1.91115   0.00047   0.00000   0.00314   0.00314   1.91429
    A1        2.08480  -0.00024   0.00000  -0.00604  -0.00634   2.07846
    A2        2.33205   0.00142   0.00000   0.02218   0.02187   2.35392
    A3        1.86610  -0.00116   0.00000  -0.01523  -0.01553   1.85057
    A4        1.99253  -0.00266   0.00000  -0.03269  -0.03269   1.95984
    A5        1.88367  -0.00037   0.00000  -0.00075  -0.00086   1.88281
    A6        1.88618  -0.00062   0.00000  -0.00156  -0.00165   1.88452
    A7        1.87366   0.00187   0.00000   0.01851   0.01839   1.89205
    A8        1.86256  -0.00042   0.00000  -0.02318  -0.02319   1.83937
    A9        1.97695  -0.00030   0.00000   0.00351   0.00344   1.98039
   A10        1.97721  -0.00022   0.00000   0.00315   0.00309   1.98030
   A11        1.94745   0.00077   0.00000   0.01231   0.01221   1.95966
   A12        1.94769   0.00080   0.00000   0.01251   0.01241   1.96010
   A13        1.90543  -0.00064   0.00000  -0.00193  -0.00211   1.90332
    D1       -0.01204   0.00038   0.00000   0.02328   0.02288   0.01084
    D2       -3.13374  -0.00041   0.00000  -0.01712  -0.01672   3.13272
    D3        2.11379   0.00003   0.00000  -0.02302  -0.02313   2.09066
    D4       -2.16123  -0.00096   0.00000  -0.05129  -0.05140  -2.21263
    D5       -0.02284  -0.00048   0.00000  -0.03756  -0.03768  -0.06052
    D6       -1.05173   0.00095   0.00000   0.02499   0.02511  -1.02662
    D7        0.95643  -0.00004   0.00001  -0.00328  -0.00316   0.95327
    D8        3.09482   0.00043   0.00000   0.01045   0.01056   3.10538
    D9       -2.06908   0.00023   0.00000   0.00492   0.00497  -2.06411
   D10        2.07714  -0.00007   0.00000  -0.01045  -0.01049   2.06665
   D11        2.13647  -0.00038   0.00000  -0.00855  -0.00855   2.12793
   D12       -0.00049  -0.00068   0.00000  -0.02393  -0.02401  -0.02450
   D13        0.01182   0.00058   0.00000   0.01724   0.01732   0.02913
   D14       -2.12515   0.00028   0.00000   0.00187   0.00186  -2.12329
         Item               Value     Threshold  Converged?
 Maximum Force            0.003994     0.000450     NO 
 RMS     Force            0.001088     0.000300     NO 
 Maximum Displacement     0.065885     0.001800     NO 
 RMS     Displacement     0.018880     0.001200     NO 
 Predicted change in Energy=-2.113034D-04
 GradGradGradGradGradGradGradGradGradGradGradGradGradGradGradGradGradGrad

                          Input orientation:                          
 ---------------------------------------------------------------------
 Center     Atomic      Atomic             Coordinates (Angstroms)
 Number     Number       Type             X           Y           Z
 ---------------------------------------------------------------------
      1          6           0        0.099918    0.471192    0.007412
      2          8           0       -0.440670    1.541878    0.016115
      3          8           0       -0.680171   -0.679855   -0.015840
      4          1           0       -1.648245   -0.476788   -0.032952
      5          6           0        1.547287   -0.002260    0.044762
      6          1           0        1.678133   -0.634581    0.957568
      7          1           0        1.706845   -0.692905   -0.819976
      8          7           0        2.427602    1.185099    0.019956
      9          1           0        3.025469    1.202947   -0.797654
     10          1           0        3.002134    1.255198    0.851320
 ---------------------------------------------------------------------
                    Distance matrix (angstroms):
                    1          2          3          4          5
     1  C    0.000000
     2  O    1.199449   0.000000
     3  O    1.390679   2.234833   0.000000
     4  H    1.989062   2.352797   0.989291   0.000000
     5  C    1.523295   2.517371   2.329029   3.231507   0.000000
     6  H    2.148556   3.180037   2.551700   3.474308   1.118108
     7  H    2.149862   3.210159   2.518859   3.452932   1.118133
     8  N    2.434735   2.890379   3.624581   4.401953   1.478308
     9  H    3.121289   3.576481   4.229414   5.024926   2.084997
    10  H    3.122452   3.554245   4.249208   5.040609   2.085262
                    6          7          8          9         10
     6  H    0.000000
     7  H    1.778732   0.000000
     8  N    2.179921   2.179880   0.000000
     9  H    2.876218   2.309442   1.013040   0.000000
    10  H    2.309877   2.875084   1.012999   1.649967   0.000000
 Stoichiometry    C2H5NO2
 Framework group  C1[X(C2H5NO2)]
 Deg. of freedom    24
 Full point group                 C1      NOp   1
 Largest Abelian subgroup         C1      NOp   1
 Largest concise Abelian subgroup C1      NOp   1
                         Standard orientation:                         
 ---------------------------------------------------------------------
 Center     Atomic      Atomic             Coordinates (Angstroms)
 Number     Number       Type             X           Y           Z
 ---------------------------------------------------------------------
      1          6           0       -0.520788    0.150173   -0.002095
      2          8           0       -0.753631    1.326769    0.007009
      3          8           0       -1.581715   -0.748906   -0.011090
      4          1           0       -2.459743   -0.293160   -0.018785
      5          6           0        0.746449   -0.694787    0.022037
      6          1           0        0.713284   -1.337194    0.936574
      7          1           0        0.704368   -1.404619   -0.840858
      8          7           0        1.913102    0.212235   -0.018288
      9          1           0        2.484119    0.067116   -0.842381
     10          1           0        2.495070    0.126991    0.806463
 ---------------------------------------------------------------------
 Rotational constants (GHZ):      9.9907335      3.8088657      2.8502895
 Standard basis: VSTO-6G (5D, 7F)
 There are    25 symmetry adapted cartesian basis functions of A   symmetry.
 There are    25 symmetry adapted basis functions of A   symmetry.
    25 basis functions,   150 primitive gaussians,    25 cartesian basis functions
    15 alpha electrons       15 beta electrons
       nuclear repulsion energy       124.4178329036 Hartrees.
 Integral buffers will be    262144 words long.
 Regular integral format.
 Two-electron integral symmetry is turned off.
 Do NDO integrals.
 One-electron integrals computed using PRISM.
 NBasis=    25 RedAO= F EigKep=  0.00D+00  NBF=    25
 NBsUse=    25 1.00D-04 EigRej=  0.00D+00 NBFU=    25
 Initial guess from the checkpoint file:  "D:\mindmap\gaussian\calculate\opt_freq\gly\gly.chk"
 B after Tr=     0.000000    0.000000    0.000000
         Rot=    0.999986    0.001365    0.000341   -0.005002 Ang=   0.60 deg.
 Overlap will be assumed to be unity.
 Keep J ints in memory in canonical form, NReq=884130.
 Requested convergence on RMS density matrix=1.00D-08 within 128 cycles.
 Requested convergence on MAX density matrix=1.00D-06.
 Requested convergence on             energy=1.00D-06.
 No special actions if energy rises.
 SCF Done:  E(RPM6) = -0.139197731626     A.U. after   11 cycles
            NFock= 10  Conv=0.51D-08     -V/T= 0.9916
 Calling FoFJK, ICntrl=      2127 FMM=F ISym2X=0 I1Cent= 0 IOpClX= 0 NMat=1 NMatS=1 NMatT=0.
 ***** Axes restored to original set *****
 -------------------------------------------------------------------
 Center     Atomic                   Forces (Hartrees/Bohr)
 Number     Number              X              Y              Z
 -------------------------------------------------------------------
      1        6           0.003673855   -0.000076612    0.001962860
      2        8           0.000971741   -0.000349746   -0.000651201
      3        8          -0.000899188    0.000285327   -0.000569023
      4        1          -0.001216997   -0.001045787   -0.000037424
      5        6           0.000832852    0.000992477   -0.000587908
      6        1          -0.000235596    0.001205316   -0.000664980
      7        1          -0.000083511    0.001151121    0.000602691
      8        7          -0.001257689   -0.000438632   -0.000127405
      9        1          -0.000863434   -0.000872820    0.000561892
     10        1          -0.000922033   -0.000850643   -0.000489502
 -------------------------------------------------------------------
 Cartesian Forces:  Max     0.003673855 RMS     0.001060399

 GradGradGradGradGradGradGradGradGradGradGradGradGradGradGradGradGradGrad
 Berny optimization.
 Using GEDIIS/GDIIS optimizer.
 FormGI is forming the generalized inverse of G from B-inverse, IUseBI=4.
 Internal  Forces:  Max     0.003547812 RMS     0.001139414
 Search for a local minimum.
 Step number   6 out of a maximum of   46
 All quantities printed in internal units (Hartrees-Bohrs-Radians)
 Mixed Optimization -- RFO/linear search
 Update second derivatives using D2CorX and points    1    2    4    3    5
                                                      6
 DE= -5.20D-05 DEPred=-2.11D-04 R= 2.46D-01
 Trust test= 2.46D-01 RLast= 1.03D-01 DXMaxT set to 2.52D-01
 ITU=  0  0 -1  1  1  0
 Use linear search instead of GDIIS.
     Eigenvalues ---    0.00234   0.00632   0.02258   0.03303   0.03705
     Eigenvalues ---    0.05227   0.05558   0.09158   0.12957   0.15332
     Eigenvalues ---    0.16001   0.17322   0.18220   0.21827   0.25150
     Eigenvalues ---    0.29438   0.34600   0.37232   0.42804   0.47688
     Eigenvalues ---    0.49144   0.53478   0.56510   1.00463
 RFO step:  Lambda=-3.66071591D-05 EMin= 2.34221768D-03
 Quartic linear search produced a step of -0.42891.
 Iteration  1 RMS(Cart)=  0.01019888 RMS(Int)=  0.00008027
 Iteration  2 RMS(Cart)=  0.00008010 RMS(Int)=  0.00004352
 Iteration  3 RMS(Cart)=  0.00000000 RMS(Int)=  0.00004352
 Variable       Old X    -DE/DX   Delta X   Delta X   Delta X     New X
                                 (Linear)    (Quad)   (Total)
    R1        2.26663  -0.00075   0.00019  -0.00040  -0.00021   2.26642
    R2        2.62800   0.00183  -0.00589   0.00670   0.00081   2.62881
    R3        2.87861  -0.00279  -0.00289  -0.00334  -0.00623   2.87238
    R4        1.86949   0.00098   0.00034   0.00079   0.00113   1.87062
    R5        2.11292  -0.00125  -0.00129  -0.00167  -0.00296   2.10996
    R6        2.11296  -0.00119  -0.00128  -0.00160  -0.00288   2.11008
    R7        2.79360  -0.00355  -0.00159  -0.00371  -0.00530   2.78830
    R8        1.91437  -0.00098  -0.00136  -0.00032  -0.00168   1.91269
    R9        1.91429  -0.00098  -0.00135  -0.00033  -0.00168   1.91261
    A1        2.07846   0.00015   0.00272  -0.00123   0.00157   2.08004
    A2        2.35392  -0.00141  -0.00938   0.00217  -0.00712   2.34680
    A3        1.85057   0.00128   0.00666  -0.00099   0.00576   1.85633
    A4        1.95984   0.00238   0.01402  -0.00046   0.01356   1.97340
    A5        1.88281   0.00019   0.00037  -0.00025   0.00015   1.88297
    A6        1.88452   0.00046   0.00071   0.00003   0.00078   1.88530
    A7        1.89205  -0.00102  -0.00789   0.00248  -0.00537   1.88668
    A8        1.83937   0.00029   0.00995  -0.00314   0.00681   1.84618
    A9        1.98039   0.00016  -0.00148   0.00061  -0.00084   1.97955
   A10        1.98030   0.00000  -0.00133   0.00012  -0.00118   1.97912
   A11        1.95966  -0.00121  -0.00524  -0.00222  -0.00745   1.95220
   A12        1.96010  -0.00121  -0.00532  -0.00209  -0.00741   1.95269
   A13        1.90332   0.00096   0.00090  -0.00050   0.00041   1.90373
    D1        0.01084  -0.00026  -0.00982   0.00132  -0.00837   0.00247
    D2        3.13272   0.00027   0.00717  -0.00101   0.00604   3.13876
    D3        2.09066  -0.00003   0.00992  -0.01445  -0.00450   2.08616
    D4       -2.21263   0.00062   0.02205  -0.01821   0.00387  -2.20876
    D5       -0.06052   0.00028   0.01616  -0.01653  -0.00034  -0.06086
    D6       -1.02662  -0.00072  -0.01077  -0.01151  -0.02231  -1.04894
    D7        0.95327  -0.00007   0.00136  -0.01527  -0.01395   0.93932
    D8        3.10538  -0.00041  -0.00453  -0.01359  -0.01815   3.08723
    D9       -2.06411  -0.00039  -0.00213  -0.00547  -0.00761  -2.07172
   D10        2.06665   0.00017   0.00450  -0.00153   0.00297   2.06962
   D11        2.12793  -0.00002   0.00367  -0.00725  -0.00357   2.12435
   D12       -0.02450   0.00055   0.01030  -0.00331   0.00700  -0.01749
   D13        0.02913  -0.00053  -0.00743  -0.00363  -0.01107   0.01806
   D14       -2.12329   0.00004  -0.00080   0.00031  -0.00050  -2.12379
         Item               Value     Threshold  Converged?
 Maximum Force            0.003548     0.000450     NO 
 RMS     Force            0.001139     0.000300     NO 
 Maximum Displacement     0.023590     0.001800     NO 
 RMS     Displacement     0.010210     0.001200     NO 
 Predicted change in Energy=-8.431869D-05
 GradGradGradGradGradGradGradGradGradGradGradGradGradGradGradGradGradGrad

                          Input orientation:                          
 ---------------------------------------------------------------------
 Center     Atomic      Atomic             Coordinates (Angstroms)
 Number     Number       Type             X           Y           Z
 ---------------------------------------------------------------------
      1          6           0        0.104612    0.469676    0.016859
      2          8           0       -0.428187    1.544132    0.025933
      3          8           0       -0.681906   -0.677002   -0.024379
      4          1           0       -1.652041   -0.481350   -0.045313
      5          6           0        1.548972   -0.002771    0.048789
      6          1           0        1.684993   -0.628369    0.963554
      7          1           0        1.706385   -0.691277   -0.816077
      8          7           0        2.421197    1.186900    0.016879
      9          1           0        3.016608    1.195682   -0.801570
     10          1           0        2.997669    1.254305    0.846037
 ---------------------------------------------------------------------
                    Distance matrix (angstroms):
                    1          2          3          4          5
     1  C    0.000000
     2  O    1.199339   0.000000
     3  O    1.391109   2.236145   0.000000
     4  H    1.998536   2.367588   0.989889   0.000000
     5  C    1.520000   2.510496   2.331686   3.237959   0.000000
     6  H    2.144653   3.172448   2.565266   3.489302   1.116544
     7  H    2.146455   3.203503   2.516133   3.452126   1.116607
     8  N    2.425072   2.871704   3.620094   4.402067   1.475503
     9  H    3.110729   3.559887   4.217818   5.018033   2.076863
    10  H    3.110138   3.534552   4.245804   5.042501   2.077154
                    6          7          8          9         10
     6  H    0.000000
     7  H    1.780871   0.000000
     8  N    2.175635   2.175390   0.000000
     9  H    2.866361   2.297284   1.012152   0.000000
    10  H    2.298127   2.866239   1.012110   1.648758   0.000000
 Stoichiometry    C2H5NO2
 Framework group  C1[X(C2H5NO2)]
 Deg. of freedom    24
 Full point group                 C1      NOp   1
 Largest Abelian subgroup         C1      NOp   1
 Largest concise Abelian subgroup C1      NOp   1
                         Standard orientation:                         
 ---------------------------------------------------------------------
 Center     Atomic      Atomic             Coordinates (Angstroms)
 Number     Number       Type             X           Y           Z
 ---------------------------------------------------------------------
      1          6           0       -0.518057    0.148556    0.005212
      2          8           0       -0.739032    1.327359    0.007650
      3          8           0       -1.586756   -0.741734   -0.015978
      4          1           0       -2.467533   -0.290157   -0.029765
      5          6           0        0.744097   -0.698099    0.028481
      6          1           0        0.716313   -1.329869    0.948679
      7          1           0        0.698162   -1.410299   -0.830282
      8          7           0        1.906058    0.209713   -0.024759
      9          1           0        2.471489    0.050001   -0.848914
     10          1           0        2.489230    0.124596    0.798061
 ---------------------------------------------------------------------
 Rotational constants (GHZ):     10.0120828      3.8257703      2.8619328
 Standard basis: VSTO-6G (5D, 7F)
 There are    25 symmetry adapted cartesian basis functions of A   symmetry.
 There are    25 symmetry adapted basis functions of A   symmetry.
    25 basis functions,   150 primitive gaussians,    25 cartesian basis functions
    15 alpha electrons       15 beta electrons
       nuclear repulsion energy       124.5047466395 Hartrees.
 Integral buffers will be    262144 words long.
 Regular integral format.
 Two-electron integral symmetry is turned off.
 Do NDO integrals.
 One-electron integrals computed using PRISM.
 NBasis=    25 RedAO= F EigKep=  0.00D+00  NBF=    25
 NBsUse=    25 1.00D-04 EigRej=  0.00D+00 NBFU=    25
 Initial guess from the checkpoint file:  "D:\mindmap\gaussian\calculate\opt_freq\gly\gly.chk"
 B after Tr=     0.000000    0.000000    0.000000
         Rot=    0.999998    0.000810   -0.000211    0.001921 Ang=   0.24 deg.
 Overlap will be assumed to be unity.
 Keep J ints in memory in canonical form, NReq=884130.
 Requested convergence on RMS density matrix=1.00D-08 within 128 cycles.
 Requested convergence on MAX density matrix=1.00D-06.
 Requested convergence on             energy=1.00D-06.
 No special actions if energy rises.
 SCF Done:  E(RPM6) = -0.139284878613     A.U. after   10 cycles
            NFock=  9  Conv=0.91D-08     -V/T= 0.9916
 Calling FoFJK, ICntrl=      2127 FMM=F ISym2X=0 I1Cent= 0 IOpClX= 0 NMat=1 NMatS=1 NMatT=0.
 ***** Axes restored to original set *****
 -------------------------------------------------------------------
 Center     Atomic                   Forces (Hartrees/Bohr)
 Number     Number              X              Y              Z
 -------------------------------------------------------------------
      1        6           0.000200782    0.000490964    0.000151098
      2        8           0.000219233   -0.000405979    0.000031092
      3        8          -0.000409119   -0.000305442   -0.000118944
      4        1           0.000125446    0.000066647    0.000009222
      5        6          -0.000426178   -0.000743411    0.000050401
      6        1          -0.000065539    0.000168275   -0.000216498
      7        1          -0.000023093    0.000139663    0.000192937
      8        7           0.000507330    0.000538026   -0.000137258
      9        1          -0.000027903   -0.000006787    0.000078100
     10        1          -0.000100959    0.000058044   -0.000040150
[...]
 Vibrational temperatures:     57.58   205.54   342.35   554.16   710.05
          (Kelvin)            801.87   910.82  1306.98  1344.22  1484.79
                             1600.45  1641.52  1722.93  1782.54  1818.20
                             1836.70  1973.16  2306.51  2639.80  3664.10
                             3787.72  3895.57  4014.03  4062.88
 
 Zero-point correction=                           0.070405 (Hartree/Particle)
 Thermal correction to Energy=                    0.076381
 Thermal correction to Enthalpy=                  0.077325
 Thermal correction to Gibbs Free Energy=         0.040537
 Sum of electronic and zero-point Energies=             -0.072295
 Sum of electronic and thermal Energies=                -0.066319
 Sum of electronic and thermal Enthalpies=              -0.065375
 Sum of electronic and thermal Free Energies=           -0.102163
 
                     E (Thermal)             CV                S
                      KCal/Mol        Cal/Mol-Kelvin    Cal/Mol-Kelvin
 Total                   47.930             19.200             77.426
 Electronic               0.000              0.000              0.000
 Translational            0.889              2.981             38.862
 Rotational               0.889              2.981             25.483
 Vibrational             46.152             13.239             13.081
 Vibration     1          0.594              1.981              5.258
 Vibration     2          0.616              1.910              2.765
 Vibration     3          0.656              1.783              1.818
 Vibration     4          0.754              1.502              1.019
 Vibration     5          0.849              1.264              0.675
 Vibration     6          0.913              1.124              0.529
                       Q            Log10(Q)             Ln(Q)
 Total Bot       0.226040D-18        -18.645814        -42.933573
 Total V=0       0.547437D+14         13.738334         31.633683
 Vib (Bot)       0.106932D-30        -30.970892        -71.313115
 Vib (Bot)    1  0.516992D+01          0.713483          1.642856
 Vib (Bot)    2  0.142227D+01          0.152983          0.352257
 Vib (Bot)    3  0.824833D+00         -0.083634         -0.192575
 Vib (Bot)    4  0.467726D+00         -0.330009         -0.759873
 Vib (Bot)    5  0.334944D+00         -0.475027         -1.093791
 Vib (Bot)    6  0.279598D+00         -0.553466         -1.274403
 Vib (V=0)       0.258974D+02          1.413255          3.254141
 Vib (V=0)    1  0.569404D+01          0.755420          1.739420
 Vib (V=0)    2  0.200760D+01          0.302678          0.696941
 Vib (V=0)    3  0.146455D+01          0.165703          0.381545
 Vib (V=0)    4  0.118467D+01          0.073596          0.169461
 Vib (V=0)    5  0.110182D+01          0.042111          0.096964
 Vib (V=0)    6  0.107287D+01          0.030545          0.070333
 Electronic      0.100000D+01          0.000000          0.000000
 Translational   0.255461D+08          7.407325         17.055997
 Rotational      0.827472D+05          4.917753         11.323546
 ***** Axes restored to original set *****
 -------------------------------------------------------------------
 Center     Atomic                   Forces (Hartrees/Bohr)
 Number     Number              X              Y              Z
 -------------------------------------------------------------------
      1        6           0.000009073   -0.000019695   -0.000008365
      2        8          -0.000008448    0.000017892    0.000010126
      3        8          -0.000036183    0.000009207    0.000001258
      4        1           0.000032602   -0.000010522   -0.000003509
      5        6          -0.000005082    0.000005039   -0.000001865
      6        1           0.000003738   -0.000001237    0.000004235
      7        1          -0.000002922   -0.000003820   -0.000002366
      8        7           0.000010707    0.000002689    0.000004373
      9        1          -0.000003771    0.000002205   -0.000001113
     10        1           0.000000286   -0.000001758   -0.000002775
 -------------------------------------------------------------------
 Cartesian Forces:  Max     0.000036183 RMS     0.000011409
 FormGI is forming the generalized inverse of G from B-inverse, IUseBI=4.

 GradGradGradGradGradGradGradGradGradGradGradGradGradGradGradGradGradGrad
 Berny optimization.
 Internal  Forces:  Max     0.000034391 RMS     0.000007319
 Search for a local minimum.
 Step number   1 out of a maximum of    2
 All quantities printed in internal units (Hartrees-Bohrs-Radians)
 Second derivative matrix not updated -- analytic derivatives used.
 ITU=  0
     Eigenvalues ---    0.00020   0.00180   0.01539   0.03471   0.03637
     Eigenvalues ---    0.03829   0.05049   0.07878   0.10629   0.12338
     Eigenvalues ---    0.12869   0.15308   0.16794   0.18586   0.18742
     Eigenvalues ---    0.24858   0.25290   0.26646   0.28305   0.28823
     Eigenvalues ---    0.37267   0.45434   0.49340   0.92788
 Angle between quadratic step and forces=  84.39 degrees.
 Linear search not attempted -- first point.
 Iteration  1 RMS(Cart)=  0.00037775 RMS(Int)=  0.00000007
 Iteration  2 RMS(Cart)=  0.00000008 RMS(Int)=  0.00000000
 Variable       Old X    -DE/DX   Delta X   Delta X   Delta X     New X
                                 (Linear)    (Quad)   (Total)
    R1        2.27887   0.00002   0.00000   0.00002   0.00002   2.27889
    R2        2.59818   0.00000   0.00000   0.00001   0.00001   2.59819
    R3        2.85721   0.00000   0.00000   0.00001   0.00001   2.85721
    R4        1.88083  -0.00003   0.00000  -0.00017  -0.00017   1.88066
    R5        2.10694   0.00001   0.00000   0.00002   0.00002   2.10696
    R6        2.11780   0.00000   0.00000   0.00001   0.00001   2.11781
    R7        2.80975   0.00001   0.00000   0.00000   0.00000   2.80975
    R8        1.92000   0.00000   0.00000  -0.00002  -0.00002   1.91998
    R9        1.92664   0.00000   0.00000  -0.00002  -0.00002   1.92662
    A1        2.10337   0.00000   0.00000  -0.00001  -0.00001   2.10336
    A2        2.26987   0.00000   0.00000   0.00001   0.00001   2.26987
    A3        1.90914   0.00000   0.00000   0.00000   0.00000   1.90914
    A4        1.97007   0.00000   0.00000   0.00007   0.00007   1.97014
    A5        1.89181   0.00000   0.00000   0.00001   0.00001   1.89183
    A6        1.91867   0.00000   0.00000  -0.00003  -0.00003   1.91864
    A7        1.88972   0.00001   0.00000  -0.00002  -0.00002   1.88971
    A8        1.86193   0.00000   0.00000   0.00002   0.00002   1.86194
    A9        2.01239   0.00000   0.00000  -0.00003  -0.00003   2.01236
   A10        1.88841   0.00000   0.00000   0.00005   0.00005   1.88846
   A11        1.91999   0.00000   0.00000   0.00002   0.00002   1.92001
   A12        1.93129   0.00000   0.00000   0.00001   0.00001   1.93129
   A13        1.87905   0.00000   0.00000   0.00003   0.00003   1.87907
    D1        0.03854   0.00000   0.00000   0.00003   0.00003   0.03857
    D2        3.14101   0.00000   0.00000   0.00005   0.00005   3.14106
    D3        1.38446   0.00000   0.00000  -0.00062  -0.00062   1.38384
    D4       -2.86972   0.00000   0.00000  -0.00061  -0.00061  -2.87033
    D5       -0.81011   0.00000   0.00000  -0.00058  -0.00058  -0.81069
    D6       -1.71310   0.00000   0.00000  -0.00064  -0.00064  -1.71374
    D7        0.31590   0.00000   0.00000  -0.00063  -0.00063   0.31527
    D8        2.37551   0.00000   0.00000  -0.00060  -0.00060   2.37491
    D9        3.01775   0.00000   0.00000   0.00059   0.00059   3.01834
   D10        0.94366   0.00000   0.00000   0.00054   0.00054   0.94420
   D11        0.89584   0.00000   0.00000   0.00060   0.00060   0.89644
   D12       -1.17825   0.00000   0.00000   0.00055   0.00055  -1.17770
   D13       -1.18660   0.00000   0.00000   0.00056   0.00056  -1.18604
   D14        3.02249   0.00000   0.00000   0.00051   0.00051   3.02300
         Item               Value     Threshold  Converged?
 Maximum Force            0.000034     0.000450     YES
 RMS     Force            0.000007     0.000300     YES
 Maximum Displacement     0.001151     0.001800     YES
 RMS     Displacement     0.000378     0.001200     YES
 Predicted change in Energy=-4.390233D-09
 Optimization completed.
    -- Stationary point found.
                           ----------------------------
                           !   Optimized Parameters   !
                           ! (Angstroms and Degrees)  !
 --------------------------                            --------------------------
 ! Name  Definition              Value          Derivative Info.                !
 --------------------------------------------------------------------------------
 ! R1    R(1,2)                  1.2059         -DE/DX =    0.0                 !
 ! R2    R(1,3)                  1.3749         -DE/DX =    0.0                 !
 ! R3    R(1,5)                  1.512          -DE/DX =    0.0                 !
 ! R4    R(3,4)                  0.9953         -DE/DX =    0.0                 !
 ! R5    R(5,6)                  1.1149         -DE/DX =    0.0                 !
 ! R6    R(5,7)                  1.1207         -DE/DX =    0.0                 !
 ! R7    R(5,8)                  1.4869         -DE/DX =    0.0                 !
 ! R8    R(8,9)                  1.016          -DE/DX =    0.0                 !
 ! R9    R(8,10)                 1.0195         -DE/DX =    0.0                 !
 ! A1    A(2,1,3)              120.5141         -DE/DX =    0.0                 !
 ! A2    A(2,1,5)              130.0537         -DE/DX =    0.0                 !
 ! A3    A(3,1,5)              109.3857         -DE/DX =    0.0                 !
 ! A4    A(1,3,4)              112.8765         -DE/DX =    0.0                 !
 ! A5    A(1,5,6)              108.3929         -DE/DX =    0.0                 !
 ! A6    A(1,5,7)              109.9319         -DE/DX =    0.0                 !
 ! A7    A(1,5,8)              108.2731         -DE/DX =    0.0                 !
 ! A8    A(6,5,7)              106.6806         -DE/DX =    0.0                 !
 ! A9    A(6,5,8)              115.3014         -DE/DX =    0.0                 !
 ! A10   A(7,5,8)              108.1979         -DE/DX =    0.0                 !
 ! A11   A(5,8,9)              110.0073         -DE/DX =    0.0                 !
 ! A12   A(5,8,10)             110.6547         -DE/DX =    0.0                 !
 ! A13   A(9,8,10)             107.6614         -DE/DX =    0.0                 !
 ! D1    D(2,1,3,4)              2.208          -DE/DX =    0.0                 !
 ! D2    D(5,1,3,4)            179.9669         -DE/DX =    0.0                 !
 ! D3    D(2,1,5,6)             79.3239         -DE/DX =    0.0                 !
 ! D4    D(2,1,5,7)           -164.4228         -DE/DX =    0.0                 !
 ! D5    D(2,1,5,8)            -46.4158         -DE/DX =    0.0                 !
 ! D6    D(3,1,5,6)            -98.1536         -DE/DX =    0.0                 !
 ! D7    D(3,1,5,7)             18.0998         -DE/DX =    0.0                 !
 ! D8    D(3,1,5,8)            136.1067         -DE/DX =    0.0                 !
 ! D9    D(1,5,8,9)            172.9046         -DE/DX =    0.0                 !
 ! D10   D(1,5,8,10)            54.0679         -DE/DX =    0.0                 !
 ! D11   D(6,5,8,9)             51.3278         -DE/DX =    0.0                 !
 ! D12   D(6,5,8,10)           -67.5089         -DE/DX =    0.0                 !
 ! D13   D(7,5,8,9)            -67.9874         -DE/DX =    0.0                 !
 ! D14   D(7,5,8,10)           173.1759         -DE/DX =    0.0                 !
 --------------------------------------------------------------------------------
 GradGradGradGradGradGradGradGradGradGradGradGradGradGradGradGradGradGrad

 1|1|UNPC-DESKTOP-KC5UJLK|Freq|RPM6|ZDO|C2H5N1O2|23122|13-Mar-2022|0||#
 N Geom=AllCheck Guess=TCheck SCRF=Check GenChk RPM6/ZDO Freq||opt freq
 (GC)||0,1|C,0.1501940734,0.3936413092,0.2064306766|O,-0.2845362424,1.3
 689270947,0.7668607233|O,-0.7016720301,-0.5120371752,-0.3804355254|H,-
 1.6578473194,-0.2443305557,-0.3120925717|C,1.5753877798,-0.0889546784,
 0.0582009391|H,1.8762248133,-0.5937463914,1.0057159768|H,1.6347653526,
 -0.8619972965,-0.7510129078|N,2.4200113743,1.0675643938,-0.3415680107|
 H,3.4003454206,0.80073573,-0.335163318|H,2.305428678,1.8401221996,0.31
 37763178||Version=IA32W-G09RevD.01|State=1-A|HF=-0.1427002|RMSD=3.937e
 -010|RMSF=1.141e-005|ZeroPoint=0.0704054|Thermal=0.0763807|Dipole=0.57
 28372,-0.7710409,0.405732|DipoleDeriv=1.5206773,0.2313701,0.212411,0.2
 313239,1.7743308,0.7366383,0.205394,0.728453,1.0977,-0.7324178,0.26869
 79,0.1491929,0.023575,-1.0892278,-0.3677485,0.0036003,-0.3758911,-0.71
 1255,-1.2193141,-0.6351166,-0.4066622,-0.159193,-0.8688003,-0.2125943,
 -0.1404463,-0.2111999,-0.7036168,0.5353547,0.1099378,0.0752725,-0.1062
 095,0.2095948,-0.108618,-0.0412121,-0.1039206,0.3311807,-0.191182,0.19
 22179,-0.124092,0.1138021,-0.3735393,-0.2021636,0.0318746,-0.0364647,-
 0.413191,0.0606848,-0.0447565,0.02229,-0.0631792,0.1382609,-0.0210363,
 0.0702423,-0.0199484,0.179125,0.1480843,-0.0247076,0.0062002,-0.044714
 1,0.2253222,0.0595373,-0.024523,0.0815604,0.2517539,-0.5491053,-0.0022
 048,0.0133346,0.0457946,-0.4315758,0.0652436,-0.025902,0.0205978,-0.53
 09949,0.258587,-0.0219028,0.0333708,-0.0340545,0.1318025,-0.0121292,-0
 .1524441,-0.0022738,0.2909518,0.1686322,-0.0735331,0.0186851,-0.007148
 2,0.2838257,0.0628669,0.0734193,-0.0809109,0.2083495|Polar=33.1115973,
 0.3441495,32.3309951,-0.9395637,10.3330677,17.3978007|HyperPolar=-39.7
 494467,-8.3633352,25.2436071,-20.9062621,2.4864143,30.033715,16.713431
 4,11.0813724,-19.985107,14.0474653|PG=C01 [X(C2H5N1O2)]|NImag=0||0.613
 94323,-0.17836664,0.71793573,-0.07423669,0.31011216,0.35346028,-0.1571
 5996,0.20424308,0.11696168,0.16319455,0.23023200,-0.50110178,-0.253678
 57,-0.22754436,0.60260980,0.13294770,-0.25296745,-0.20244019,-0.128149
 52,0.33244038,0.21552413,-0.15235632,-0.07698093,-0.05342648,0.0218493
 0,-0.03591356,-0.02213873,0.36789252,-0.07677502,-0.14345678,-0.062803
 75,-0.01658962,-0.07882880,-0.06070188,0.06559728,0.25878024,-0.054446
 42,-0.06511974,-0.08368287,-0.00985530,-0.06038447,-0.01712493,0.06803
 287,0.13828020,0.11494041,-0.05100386,-0.01339886,-0.01222310,-0.00118
 349,0.00541055,0.00358135,-0.17941365,0.03473702,0.00483578,0.23308989
 ,-0.03511632,0.01482929,0.00413990,0.00417705,-0.00721967,-0.00188367,
 0.06120775,-0.04554610,-0.01263771,-0.02575519,0.03994193,-0.02460568,
 0.00666116,0.00321075,0.00277593,-0.00175495,-0.00442473,0.01957394,-0
 .01500109,-0.02025974,0.00494996,0.01439754,0.01890089,-0.17667774,0.0
 5104094,0.01217050,-0.02346851,0.02591721,0.01273397,-0.04979708,-0.00
 808278,-0.00884819,-0.00096057,-0.00312809,-0.00157922,0.48551797,0.04
 259353,-0.07487408,0.00227018,0.03502962,-0.01560265,-0.01600814,-0.01
 373406,0.01028321,0.00001528,-0.00147642,-0.00186703,-0.00445991,0.023
 73608,0.48140986,0.00863923,0.00035765,-0.07063033,0.01708209,-0.01580
 335,0.01019064,-0.01388714,0.00055024,0.00710921,-0.00100156,-0.003984
 08,0.00229715,-0.01981334,-0.00047474,0.39784862,-0.02069473,0.0188305
 9,-0.02305637,-0.00072460,-0.00083766,0.00208781,-0.00210119,-0.000311
 83,0.00063416,-0.00021631,-0.00077445,0.00033083,-0.04620885,0.0245024
 9,-0.04449890,0.06427861,0.01892136,-0.00519782,0.01128973,-0.00053531
 ,0.00037611,-0.00076017,-0.00083345,-0.00102153,-0.00043979,0.00030840
 ,0.00013167,-0.00018399,0.01747322,-0.06289732,0.05933805,-0.02540845,
 0.08747175,-0.01259650,0.00722582,0.00158101,0.00169970,-0.00170214,-0
 .00185732,0.00161217,-0.00010357,-0.00039057,-0.00025944,0.00019452,0.
 00012717,-0.04190651,0.06258931,-0.15506964,0.05089824,-0.08713554,0.1
 8877271,-0.01071107,0.02248886,0.02271842,-0.00349461,0.00135406,-0.00
 072349,-0.00217695,-0.00073228,-0.00095729,-0.00016244,0.00002977,-0.0
 0003203,-0.03579660,0.00800002,0.00787833,0.00391952,-0.00254937,-0.00
 570453,0.05038202,0.01752626,-0.00933034,-0.01234369,-0.00002915,-0.00
 018172,0.00016461,-0.00107319,-0.00079689,-0.00030964,0.00019311,-0.00
 048699,-0.00017728,0.00571951,-0.10853902,-0.08194413,-0.00049767,0.00
 560189,0.00104729,-0.00673543,0.15211758,0.01287912,-0.00863742,-0.001
 79565,-0.00117709,0.00041545,0.00017503,-0.00100468,-0.00015600,-0.001
 22630,0.00021554,-0.00046555,0.00004077,0.00744229,-0.08632224,-0.1261
 4196,-0.00163859,-0.00926314,-0.02288541,-0.01386877,0.10813320,0.1457
 7127,-0.04140505,-0.01841867,0.01300564,-0.00057558,-0.00100621,-0.000
 66361,-0.00516017,0.00073943,-0.00004633,0.00027086,-0.00064670,-0.001
 50406,-0.12010115,-0.09427888,0.05806686,0.00065556,-0.00760439,0.0059
 7955,0.00020302,-0.01102654,-0.00380813,0.45120631,-0.01450453,0.00519
 276,-0.00053241,0.00029197,0.00149288,0.00042026,0.00170837,0.00062384
 ,0.00087227,0.00012161,0.00014901,0.00070047,-0.06873838,-0.19708333,0
 .05733575,-0.01526947,-0.02424412,0.01806870,-0.01842520,-0.03498270,-
 0.00480272,0.05662045,0.46189491,0.01118012,-0.00032906,-0.00196501,0.
 00164738,0.00077253,0.00114095,0.00197770,0.00029631,0.00117594,-0.000
 21151,0.00047344,-0.00008475,0.02438442,0.03208838,-0.06966676,0.01412
 678,0.02545412,-0.01169357,-0.01025170,-0.01530834,0.00550498,-0.06929
 764,0.05400355,0.22649997,-0.00133387,-0.00196410,0.00038071,0.0007778
 4,-0.00025137,-0.00032345,0.00037640,0.00026167,0.00002156,-0.00018755
 ,-0.00001180,-0.00003680,-0.03229170,-0.00641610,0.00222815,0.00034396
 ,-0.00022386,0.00053257,-0.00076934,-0.00145809,-0.00003315,-0.2326360
 6,0.05315413,0.00871576,0.27234551,-0.00124769,-0.00448065,0.00128328,
 0.00040997,0.00034720,-0.00027869,-0.00091571,0.00041604,-0.00006379,-
 0.00003187,-0.00015866,-0.00029127,-0.03501565,0.00521978,0.00143300,-
 0.00026085,0.00064879,-0.00007216,-0.00105206,-0.00046935,0.00013251,0
 .06016690,-0.06942868,-0.00771556,-0.04999096,0.07665485,0.00197305,0.
 00390130,0.00033620,-0.00069055,-0.00039499,-0.00009653,-0.00072775,-0
 .00051459,-0.00038728,0.00021569,-0.00012403,0.00007883,0.01946395,0.0
 0075357,-0.00420947,0.00047992,0.00092363,0.00058007,-0.00089555,-0.00
 058561,0.00107369,-0.03255260,0.00090649,-0.02164802,-0.01267821,0.005
 99240,0.02348893,-0.00260046,-0.00747458,-0.00229432,0.00078482,0.0026
 3977,0.00064808,0.00088731,0.00115610,0.00062927,-0.00023294,0.0000179
 4,0.00012693,-0.00021600,-0.01795655,-0.01469398,0.00074822,0.00045190
 ,-0.00025527,-0.00139362,-0.00261875,0.00099356,-0.05245757,0.00504123
 ,0.01772856,-0.00662525,0.02793789,0.02541206,0.06110554,-0.00326280,0
 .00048423,0.00026367,0.00054678,-0.00189164,-0.00042533,0.00093708,-0.
 00045323,-0.00021290,-0.00010825,0.00022648,0.00010928,-0.00892196,-0.
 03604961,-0.01680867,0.00002729,-0.00086943,-0.00011213,-0.00237836,-0
 .00293237,0.00096593,0.01545455,-0.14361458,-0.08973519,0.00690056,-0.
 00874940,-0.01085813,-0.00919499,0.19384958,-0.00173440,-0.00120486,0.
 00192572,-0.00029419,0.00009054,-0.00108732,-0.00001167,0.00015406,-0.
 00015345,-0.00010281,-0.00011032,0.00011357,-0.00404800,0.00954805,0.0
 0827232,0.00063631,0.00077721,0.00083563,0.00183660,0.00132355,-0.0005
 1639,0.03082057,-0.12697196,-0.12926383,0.00119275,-0.00041978,0.00078
 364,-0.02829489,0.11681339,0.11909027||-0.00000907,0.00001970,0.000008
 36,0.00000845,-0.00001789,-0.00001013,0.00003618,-0.00000921,-0.000001
 26,-0.00003260,0.00001052,0.00000351,0.00000508,-0.00000504,0.00000187
 ,-0.00000374,0.00000124,-0.00000424,0.00000292,0.00000382,0.00000237,-
 0.00001071,-0.00000269,-0.00000437,0.00000377,-0.00000220,0.00000111,-
 0.00000029,0.00000176,0.00000277|||@


 IF I HAVE SEEN FARTHER, IT IS BY STANDING ON THE
 SHOULDERS OF GIANTS. -- SIR ISAAC NEWTON
 Job cpu time:       0 days  0 hours  0 minutes  6.0 seconds.
 File lengths (MBytes):  RWF=      5 Int=      0 D2E=      0 Chk=      1 Scr=      1
 Normal termination of Gaussian 09 at Sun Mar 13 10:41:52 2022.
