 Entering Link 1 = C:\G09W\l1.exe PID=      9480.
  
 Copyright (c) 1988,1990,1992,1993,1995,1998,2003,2009,2013,
            Gaussian, Inc.  All Rights Reserved.
  
 This is part of the Gaussian(R) 09 program.  It is based on
 the Gaussian(R) 03 system (copyright 2003, Gaussian, Inc.),
 the Gaussian(R) 98 system (copyright 1998, Gaussian, Inc.),
 the Gaussian(R) 94 system (copyright 1995, Gaussian, Inc.),
 the Gaussian 92(TM) system (copyright 1992, Gaussian, Inc.),
 the Gaussian 90(TM) system (copyright 1990, Gaussian, Inc.),
 the Gaussian 88(TM) system (copyright 1988, Gaussian, Inc.),
 the Gaussian 86(TM) system (copyright 1986, Carnegie Mellon
 University), and the Gaussian 82(TM) system (copyright 1983,
 Carnegie Mellon University). Gaussian is a federally registered
 trademark of Gaussian, Inc.
  
 This software contains proprietary and confidential information,
 including trade secrets, belonging to Gaussian, Inc.
  
 This software is provided under written license and may be
 used, copied, transmitted, or stored only in accord with that
 written license.
  
 The following legend is applicable only to US Government
 contracts under FAR:
  
                    RESTRICTED RIGHTS LEGEND
  
 Use, reproduction and disclosure by the US Government is
 subject to restrictions as set forth in subparagraphs (a)
 and (c) of the Commercial Computer Software - Restricted
 Rights clause in FAR 52.227-19.
  
 Gaussian, Inc.
 340 Quinnipiac St., Bldg. 40, Wallingford CT 06492
  
  
 ---------------------------------------------------------------
 Warning -- This program may not be used in any manner that
 competes with the business of Gaussian, Inc. or will provide
 assistance to any competitor of Gaussian, Inc.  The licensee
 of this program is prohibited from giving any competitor of
 Gaussian, Inc. access to this program.  By using this program,
 the user acknowledges that Gaussian, Inc. is engaged in the
 business of creating and licensing software in the field of
 computational chemistry and represents and warrants to the
 licensee that it is not a competitor of Gaussian, Inc. and that
 it will not use this program in any manner prohibited above.
 ---------------------------------------------------------------
  

 Cite this work as:
 Gaussian 09, Revision D.01,
 M. J. Frisch, G. W. Trucks, H. B. Schlegel, G. E. Scuseria, 
 M. A. Robb, J. R. Cheeseman, G. Scalmani, V. Barone, B. Mennucci, 
 G. A. Petersson, H. Nakatsuji, M. Caricato, X. Li, H. P. Hratchian, 
 A. F. Izmaylov, J. Bloino, G. Zheng, J. L. Sonnenberg, M. Hada, 
 M. Ehara, K. Toyota, R. Fukuda, J. Hasegawa, M. Ishida, T. Nakajima, 
 Y. Honda, O. Kitao, H. Nakai, T. Vreven, J. A. Montgomery, Jr., 
 J. E. Peralta, F. Ogliaro, M. Bearpark, J. J. Heyd, E. Brothers, 
 K. N. Kudin, V. N. Staroverov, T. Keith, R. Kobayashi, J. Normand, 
 K. Raghavachari, A. Rendell, J. C. Burant, S. S. Iyengar, J. Tomasi, 
 M. Cossi, N. Rega, J. M. Millam, M. Klene, J. E. Knox, J. B. Cross, 
 V. Bakken, C. Adamo, J. Jaramillo, R. Gomperts, R. E. Stratmann, 
 O. Yazyev, A. J. Austin, R. Cammi, C. Pomelli, J. W. Ochterski, 
 R. L. Martin, K. Morokuma, V. G. Zakrzewski, G. A. Voth, 
 P. Salvador, J. J. Dannenberg, S. Dapprich, A. D. Daniels, 
 O. Farkas, J. B. Foresman, J. V. Ortiz, J. Cioslowski, 
 and D. J. Fox, Gaussian, Inc., Wallingford CT, 2013.
 
 ******************************************
 Gaussian 09:  IA32W-G09RevD.01 24-Apr-2013
                13-Mar-2022 
 ******************************************
 %chk=D:\mindmap\gaussian\calculate\opt_freq\gly\gly.chk
 %nprocshared=4
 Will use up to    4 processors via shared memory.
 %mem=1GB
 --------------
 # opt freq pm6
 --------------
 1/14=-1,18=20,19=15,26=1,38=1/1,3;
 2/9=110,12=2,17=6,18=5,40=1/2;
 3/5=2,16=1,25=1,41=3900000,71=1/1,2,3;
 4/35=1/1;
 5/5=2,35=1,38=5/2;
 6/7=2,8=2,9=2,10=2,28=1/1;
 7//1,2,3,16;
 1/14=-1,18=20,19=15,26=1/3(2);
 2/9=110/2;
 99//99;
 2/9=110/2;
 3/5=2,16=1,25=1,41=3900000,71=1,135=20/1,2,3;
 4/5=5,16=3,35=1/1;
 5/5=2,35=1,38=5/2;
 7//1,2,3,16;
 1/14=-1,18=20,19=15,26=1/3(-5);
 2/9=110/2;
 6/7=2,8=2,9=2,10=2,19=2,28=1/1;
 99/9=1/99;
 ------------
 opt freq(GC)
 ------------
 Symbolic Z-matrix:
 Charge =  0 Multiplicity = 1
 C                    -0.52714   0.12322   0.07343 
 O                    -0.71999   1.26603  -0.25982 
 O                    -1.58471  -0.72185   0.3137 
 H                    -2.46767  -0.2935    0.14784 
 C                     0.76928  -0.60415   0.34963 
 H                     0.7095   -1.0555    1.36738 
 H                     0.89242  -1.4528   -0.37188 
 N                     1.89177   0.34853   0.14191 
 H                     2.76731  -0.07715   0.43265 
 H                     1.75676   1.19066   0.70052 
 

 GradGradGradGradGradGradGradGradGradGradGradGradGradGradGradGradGradGrad
 Berny optimization.
 Initialization pass.
                           ----------------------------
                           !    Initial Parameters    !
                           ! (Angstroms and Degrees)  !
 --------------------------                            --------------------------
 ! Name  Definition              Value          Derivative Info.                !
 --------------------------------------------------------------------------------
 ! R1    R(1,2)                  1.2059         estimate D2E/DX2                !
 ! R2    R(1,3)                  1.3749         estimate D2E/DX2                !
 ! R3    R(1,5)                  1.512          estimate D2E/DX2                !
 ! R4    R(3,4)                  0.9953         estimate D2E/DX2                !
 ! R5    R(5,6)                  1.1149         estimate D2E/DX2                !
 ! R6    R(5,7)                  1.1207         estimate D2E/DX2                !
 ! R7    R(5,8)                  1.4869         estimate D2E/DX2                !
 ! R8    R(8,9)                  1.016          estimate D2E/DX2                !
 ! R9    R(8,10)                 1.0195         estimate D2E/DX2                !
 ! A1    A(2,1,3)              120.5141         estimate D2E/DX2                !
 ! A2    A(2,1,5)              130.0537         estimate D2E/DX2                !
 ! A3    A(3,1,5)              109.3857         estimate D2E/DX2                !
 ! A4    A(1,3,4)              112.8764         estimate D2E/DX2                !
 ! A5    A(1,5,6)              108.393          estimate D2E/DX2                !
 ! A6    A(1,5,7)              109.9319         estimate D2E/DX2                !
 ! A7    A(1,5,8)              108.2731         estimate D2E/DX2                !
 ! A8    A(6,5,7)              106.6805         estimate D2E/DX2                !
 ! A9    A(6,5,8)              115.3014         estimate D2E/DX2                !
 ! A10   A(7,5,8)              108.1979         estimate D2E/DX2                !
 ! A11   A(5,8,9)              110.0073         estimate D2E/DX2                !
 ! A12   A(5,8,10)             110.6547         estimate D2E/DX2                !
 ! A13   A(9,8,10)             107.6614         estimate D2E/DX2                !
 ! D1    D(2,1,3,4)              2.208          estimate D2E/DX2                !
 ! D2    D(5,1,3,4)            179.9668         estimate D2E/DX2                !
 ! D3    D(2,1,5,6)            125.7396         estimate D2E/DX2                !
 ! D4    D(2,1,5,7)           -118.007          estimate D2E/DX2                !
 ! D5    D(2,1,5,8)              0.0            estimate D2E/DX2                !
 ! D6    D(3,1,5,6)            -51.7378         estimate D2E/DX2                !
 ! D7    D(3,1,5,7)             64.5156         estimate D2E/DX2                !
 ! D8    D(3,1,5,8)           -177.4775         estimate D2E/DX2                !
 ! D9    D(1,5,8,9)            172.9046         estimate D2E/DX2                !
 ! D10   D(1,5,8,10)            54.0679         estimate D2E/DX2                !
 ! D11   D(6,5,8,9)             51.3278         estimate D2E/DX2                !
 ! D12   D(6,5,8,10)           -67.5089         estimate D2E/DX2                !
 ! D13   D(7,5,8,9)            -67.9873         estimate D2E/DX2                !
 ! D14   D(7,5,8,10)           173.176          estimate D2E/DX2                !
 --------------------------------------------------------------------------------
 Trust Radius=3.00D-01 FncErr=1.00D-07 GrdErr=1.00D-07
 Number of steps in this run=     46 maximum allowed number of steps=    100.
 GradGradGradGradGradGradGradGradGradGradGradGradGradGradGradGradGradGrad

                          Input orientation:                          
 ---------------------------------------------------------------------
 Center     Atomic      Atomic             Coordinates (Angstroms)
 Number     Number       Type             X           Y           Z
 ---------------------------------------------------------------------
      1          6           0       -0.527136    0.123224    0.073427
      2          8           0       -0.719992    1.266031   -0.259820
      3          8           0       -1.584712   -0.721845    0.313699
      4          1           0       -2.467675   -0.293501    0.147843
      5          6           0        0.769275   -0.604152    0.349634
      6          1           0        0.709498   -1.055497    1.367385
      7          1           0        0.892420   -1.452797   -0.371882
      8          7           0        1.891768    0.348531    0.141915
      9          1           0        2.767307   -0.077145    0.432646
     10          1           0        1.756764    1.190663    0.700518
 ---------------------------------------------------------------------
                    Distance matrix (angstroms):
                    1          2          3          4          5
     1  C    0.000000
     2  O    1.205925   0.000000
     3  O    1.374897   2.242391   0.000000
     4  H    1.986174   2.377546   0.995294   0.000000
     5  C    1.511968   2.467171   2.357202   3.258077   0.000000
     6  H    2.143123   3.175017   2.546562   3.487456   1.114945
     7  H    2.167321   3.162982   2.672171   3.592258   1.120691
     8  N    2.430339   2.797228   3.641583   4.406470   1.486856
     9  H    3.320021   3.800642   4.401120   5.247185   2.068032
    10  H    2.597858   2.657489   3.869467   4.511549   2.078368
                    6          7          8          9         10
     6  H    0.000000
     7  H    1.793420   0.000000
     8  N    2.206996   2.123079   0.000000
     9  H    2.462820   2.460667   1.016019   0.000000
    10  H    2.566459   2.980774   1.019534   1.643256   0.000000
 Stoichiometry    C2H5NO2
 Framework group  C1[X(C2H5NO2)]
 Deg. of freedom    24
 Full point group                 C1      NOp   1
 Largest Abelian subgroup         C1      NOp   1
 Largest concise Abelian subgroup C1      NOp   1
                         Standard orientation:                         
 ---------------------------------------------------------------------
 Center     Atomic      Atomic             Coordinates (Angstroms)
 Number     Number       Type             X           Y           Z
 ---------------------------------------------------------------------
      1          6           0       -0.521691    0.118453   -0.029517
      2          8           0       -0.643745    1.318107   -0.043208
      3          8           0       -1.627413   -0.694901    0.049066
      4          1           0       -2.482618   -0.185781    0.054708
      5          6           0        0.728103   -0.732463   -0.031758
      6          1           0        0.679994   -1.430516    0.836291
      7          1           0        0.755965   -1.367958   -0.954427
      8          7           0        1.907921    0.172095   -0.055149
      9          1           0        2.761441   -0.366762    0.060735
     10          1           0        1.860568    0.844761    0.709525
 ---------------------------------------------------------------------
 Rotational constants (GHZ):     10.2040725      3.8838531      2.8851737
 Standard basis: VSTO-6G (5D, 7F)
 There are    25 symmetry adapted cartesian basis functions of A   symmetry.
 There are    25 symmetry adapted basis functions of A   symmetry.
    25 basis functions,   150 primitive gaussians,    25 cartesian basis functions
    15 alpha electrons       15 beta electrons
       nuclear repulsion energy       124.8430348923 Hartrees.
 Integral buffers will be    262144 words long.
 Regular integral format.
 Two-electron integral symmetry is turned off.
 Do NDO integrals.
 One-electron integrals computed using PRISM.
 NBasis=    25 RedAO= F EigKep=  0.00D+00  NBF=    25
 NBsUse=    25 1.00D-04 EigRej=  0.00D+00 NBFU=    25
 Simple Huckel Guess.
 Overlap will be assumed to be unity.
 Keep J ints in memory in canonical form, NReq=884130.
 Requested convergence on RMS density matrix=1.00D-08 within 128 cycles.
 Requested convergence on MAX density matrix=1.00D-06.
 Requested convergence on             energy=1.00D-06.
 No special actions if energy rises.
 SCF Done:  E(RPM6) = -0.140557810006     A.U. after   14 cycles
            NFock= 13  Conv=0.28D-08     -V/T= 0.9915

 **********************************************************************

            Population analysis using the SCF density.

 **********************************************************************

 Orbital symmetries:
       Occupied  (A) (A) (A) (A) (A) (A) (A) (A) (A) (A) (A) (A)
                 (A) (A) (A)
       Virtual   (A) (A) (A) (A) (A) (A) (A) (A) (A) (A)
 The electronic state is 1-A.
 Alpha  occ. eigenvalues --   -1.19979  -1.15409  -1.13023  -0.95673  -0.78407
 Alpha  occ. eigenvalues --   -0.68593  -0.64674  -0.62009  -0.57540  -0.57101
 Alpha  occ. eigenvalues --   -0.52220  -0.50082  -0.45606  -0.41828  -0.36695
 Alpha virt. eigenvalues --    0.01568   0.05208   0.08602   0.11743   0.14439
 Alpha virt. eigenvalues --    0.16051   0.17169   0.18630   0.20359   0.23763
          Condensed to atoms (all electrons):
               1          2          3          4          5          6
     1  C    3.370368   0.000000   0.000000   0.000000   0.000000   0.000000
     2  O    0.000000   6.477878   0.000000   0.000000   0.000000   0.000000
     3  O    0.000000   0.000000   6.544327   0.000000   0.000000   0.000000
     4  H    0.000000   0.000000   0.000000   0.655510   0.000000   0.000000
     5  C    0.000000   0.000000   0.000000   0.000000   4.260579   0.000000
     6  H    0.000000   0.000000   0.000000   0.000000   0.000000   0.841595
     7  H    0.000000   0.000000   0.000000   0.000000   0.000000   0.000000
     8  N    0.000000   0.000000   0.000000   0.000000   0.000000   0.000000
     9  H    0.000000   0.000000   0.000000   0.000000   0.000000   0.000000
    10  H    0.000000   0.000000   0.000000   0.000000   0.000000   0.000000
               7          8          9         10
     1  C    0.000000   0.000000   0.000000   0.000000
     2  O    0.000000   0.000000   0.000000   0.000000
     3  O    0.000000   0.000000   0.000000   0.000000
     4  H    0.000000   0.000000   0.000000   0.000000
     5  C    0.000000   0.000000   0.000000   0.000000
     6  H    0.000000   0.000000   0.000000   0.000000
     7  H    0.804595   0.000000   0.000000   0.000000
     8  N    0.000000   5.479712   0.000000   0.000000
     9  H    0.000000   0.000000   0.785668   0.000000
    10  H    0.000000   0.000000   0.000000   0.779769
 Mulliken charges:
               1
     1  C    0.629632
     2  O   -0.477878
     3  O   -0.544327
     4  H    0.344490
     5  C   -0.260579
     6  H    0.158405
     7  H    0.195405
     8  N   -0.479712
     9  H    0.214332
    10  H    0.220231
 Sum of Mulliken charges =   0.00000
 Mulliken charges with hydrogens summed into heavy atoms:
               1
     1  C    0.629632
     2  O   -0.477878
     3  O   -0.199837
     5  C    0.093232
     8  N   -0.045149
 Charge=              0.0000 electrons
 Dipole moment (field-independent basis, Debye):
    X=              0.4581    Y=             -2.6145    Z=              1.6876  Tot=              3.1454
 N-N= 1.248430348923D+02 E-N=-2.122152110671D+02  KE=-1.657518943770D+01
 Calling FoFJK, ICntrl=      2127 FMM=F ISym2X=0 I1Cent= 0 IOpClX= 0 NMat=1 NMatS=1 NMatT=0.
 ***** Axes restored to original set *****
 -------------------------------------------------------------------
 Center     Atomic                   Forces (Hartrees/Bohr)
 Number     Number              X              Y              Z
 -------------------------------------------------------------------
      1        6           0.004525380    0.006272535   -0.002318830
      2        8          -0.002934995   -0.002975531    0.001348745
      3        8          -0.002139263   -0.002176303   -0.000323340
      4        1           0.000376570   -0.000207324   -0.000123524
      5        6          -0.001215507    0.001011866    0.001428806
      6        1           0.000815562   -0.001129795    0.000007500
      7        1          -0.001153460    0.000731786    0.000438534
      8        7           0.001566224   -0.001478052    0.000911117
      9        1          -0.000032954    0.000058101    0.000057923
     10        1           0.000192443   -0.000107282   -0.001426933
 -------------------------------------------------------------------
 Cartesian Forces:  Max     0.006272535 RMS     0.001916666

 GradGradGradGradGradGradGradGradGradGradGradGradGradGradGradGradGradGrad
 Berny optimization.
 FormGI is forming the generalized inverse of G from B-inverse, IUseBI=4.
 Internal  Forces:  Max     0.005553725 RMS     0.001675477
 Search for a local minimum.
 Step number   1 out of a maximum of   46
 All quantities printed in internal units (Hartrees-Bohrs-Radians)
 Mixed Optimization -- RFO/linear search
 Second derivative matrix not updated -- first step.
 ITU=  0
     Eigenvalues ---    0.00543   0.00608   0.00908   0.02024   0.03997
     Eigenvalues ---    0.05238   0.06516   0.09326   0.12861   0.16000
     Eigenvalues ---    0.16000   0.16000   0.21859   0.24985   0.25000
     Eigenvalues ---    0.31153   0.31494   0.32082   0.33796   0.44413
     Eigenvalues ---    0.44979   0.48525   0.50047   1.01901
 RFO step:  Lambda=-9.77985358D-04 EMin= 5.42837645D-03
 Linear search not attempted -- first point.
 Iteration  1 RMS(Cart)=  0.06373649 RMS(Int)=  0.00196652
 Iteration  2 RMS(Cart)=  0.00282268 RMS(Int)=  0.00019251
 Iteration  3 RMS(Cart)=  0.00000352 RMS(Int)=  0.00019249
 Iteration  4 RMS(Cart)=  0.00000000 RMS(Int)=  0.00019249
 Variable       Old X    -DE/DX   Delta X   Delta X   Delta X     New X
                                 (Linear)    (Quad)   (Total)
    R1        2.27887  -0.00272   0.00000  -0.00267  -0.00267   2.27620
    R2        2.59818   0.00274   0.00000   0.00547   0.00547   2.60365
    R3        2.85721   0.00085   0.00000   0.00271   0.00271   2.85991
    R4        1.88083  -0.00040   0.00000  -0.00083  -0.00083   1.88000
    R5        2.10694   0.00042   0.00000   0.00131   0.00131   2.10825
    R6        2.11780  -0.00096   0.00000  -0.00305  -0.00305   2.11475
    R7        2.80975   0.00039   0.00000   0.00115   0.00115   2.81090
    R8        1.92000  -0.00004   0.00000  -0.00008  -0.00008   1.91992
    R9        1.92664  -0.00090   0.00000  -0.00201  -0.00201   1.92463
    A1        2.10337  -0.00215   0.00000  -0.00792  -0.00833   2.09504
    A2        2.26987   0.00555   0.00000   0.02274   0.02233   2.29220
    A3        1.90914  -0.00338   0.00000  -0.01282  -0.01323   1.89591
    A4        1.97007  -0.00006   0.00000  -0.00035  -0.00035   1.96972
    A5        1.89181  -0.00045   0.00000   0.00908   0.00880   1.90061
    A6        1.91867  -0.00216   0.00000  -0.01876  -0.01865   1.90002
    A7        1.88972   0.00416   0.00000   0.02207   0.02191   1.91164
    A8        1.86193   0.00015   0.00000  -0.00892  -0.00890   1.85303
    A9        2.01239  -0.00079   0.00000   0.00530   0.00498   2.01736
   A10        1.88841  -0.00114   0.00000  -0.01094  -0.01082   1.87759
   A11        1.91999  -0.00002   0.00000   0.00272   0.00268   1.92267
   A12        1.93129   0.00116   0.00000   0.01005   0.01001   1.94130
   A13        1.87905  -0.00011   0.00000   0.00492   0.00485   1.88390
    D1        0.03854  -0.00017   0.00000  -0.01648  -0.01603   0.02251
    D2        3.14101   0.00050   0.00000   0.03219   0.03174  -3.11043
    D3        2.19457   0.00050   0.00000  -0.05000  -0.04977   2.14480
    D4       -2.05961  -0.00077   0.00000  -0.06583  -0.06567  -2.12528
    D5        0.00000  -0.00092   0.00000  -0.07670  -0.07670  -0.07670
    D6       -0.90300   0.00001   0.00000  -0.10374  -0.10377  -1.00677
    D7        1.12601  -0.00126   0.00000  -0.11957  -0.11967   1.00634
    D8       -3.09757  -0.00141   0.00000  -0.13045  -0.13071   3.05491
    D9        3.01775   0.00095   0.00000  -0.02462  -0.02453   2.99323
   D10        0.94366   0.00038   0.00000  -0.03869  -0.03863   0.90503
   D11        0.89584  -0.00108   0.00000  -0.05672  -0.05677   0.83907
   D12       -1.17825  -0.00165   0.00000  -0.07079  -0.07087  -1.24912
   D13       -1.18660   0.00007   0.00000  -0.04077  -0.04077  -1.22737
   D14        3.02249  -0.00051   0.00000  -0.05483  -0.05487   2.96762
         Item               Value     Threshold  Converged?
 Maximum Force            0.005554     0.000450     NO 
 RMS     Force            0.001675     0.000300     NO 
 Maximum Displacement     0.174449     0.001800     NO 
 RMS     Displacement     0.063647     0.001200     NO 
 Predicted change in Energy=-5.272099D-04
 GradGradGradGradGradGradGradGradGradGradGradGradGradGradGradGradGradGrad

                          Input orientation:                          
 ---------------------------------------------------------------------
 Center     Atomic      Atomic             Coordinates (Angstroms)
 Number     Number       Type             X           Y           Z
 ---------------------------------------------------------------------
      1          6           0       -0.535758    0.146135    0.121252
      2          8           0       -0.758253    1.294161   -0.167506
      3          8           0       -1.577398   -0.745758    0.254751
      4          1           0       -2.464245   -0.334659    0.069719
      5          6           0        0.763482   -0.585881    0.379147
      6          1           0        0.727052   -1.038534    1.398177
      7          1           0        0.845955   -1.440416   -0.338698
      8          7           0        1.908576    0.328237    0.122841
      9          1           0        2.776593   -0.104503    0.425317
     10          1           0        1.801514    1.204729    0.630364
 ---------------------------------------------------------------------
                    Distance matrix (angstroms):
                    1          2          3          4          5
     1  C    0.000000
     2  O    1.204512   0.000000
     3  O    1.377791   2.238430   0.000000
     4  H    1.988185   2.370599   0.994855   0.000000
     5  C    1.513401   2.479731   2.349628   3.252242   0.000000
     6  H    2.151434   3.177886   2.589137   3.527693   1.115636
     7  H    2.153562   3.175012   2.589859   3.513820   1.119077
     8  N    2.451109   2.851191   3.650052   4.423101   1.487462
     9  H    3.335707   3.847445   4.404263   5.257928   2.070380
    10  H    2.615847   2.682723   3.919506   4.569545   2.084922
                    6          7          8          9         10
     6  H    0.000000
     7  H    1.786724   0.000000
     8  N    2.211457   2.114312   0.000000
     9  H    2.453465   2.468956   1.015976   0.000000
    10  H    2.603120   2.974720   1.018469   1.645269   0.000000
 Stoichiometry    C2H5NO2
 Framework group  C1[X(C2H5NO2)]
 Deg. of freedom    24
 Full point group                 C1      NOp   1
 Largest Abelian subgroup         C1      NOp   1
 Largest concise Abelian subgroup C1      NOp   1
                         Standard orientation:                         
 ---------------------------------------------------------------------
 Center     Atomic      Atomic             Coordinates (Angstroms)
 Number     Number       Type             X           Y           Z
 ---------------------------------------------------------------------
      1          6           0       -0.523433    0.125490    0.004787
      2          8           0       -0.680987    1.319408   -0.019425
      3          8           0       -1.615669   -0.714336    0.009268
      4          1           0       -2.480372   -0.223916   -0.029658
      5          6           0        0.733927   -0.716621    0.021407
      6          1           0        0.715492   -1.375729    0.921341
      7          1           0        0.723859   -1.399371   -0.865207
      8          7           0        1.924913    0.165568   -0.104452
      9          1           0        2.774981   -0.370235    0.045570
     10          1           0        1.901936    0.916486    0.583206
 ---------------------------------------------------------------------
 Rotational constants (GHZ):     10.1743287      3.8459038      2.8571134
 Standard basis: VSTO-6G (5D, 7F)
 There are    25 symmetry adapted cartesian basis functions of A   symmetry.
 There are    25 symmetry adapted basis functions of A   symmetry.
    25 basis functions,   150 primitive gaussians,    25 cartesian basis functions
    15 alpha electrons       15 beta electrons
       nuclear repulsion energy       124.6942212457 Hartrees.
 Integral buffers will be    262144 words long.
 Regular integral format.
 Two-electron integral symmetry is turned off.
 Do NDO integrals.
 One-electron integrals computed using PRISM.
 NBasis=    25 RedAO= F EigKep=  0.00D+00  NBF=    25
 NBsUse=    25 1.00D-04 EigRej=  0.00D+00 NBFU=    25
 Initial guess from the checkpoint file:  "D:\mindmap\gaussian\calculate\opt_freq\gly\gly.chk"
 B after Tr=     0.000000    0.000000    0.000000
         Rot=    0.999980    0.004258   -0.001197   -0.004415 Ang=   0.72 deg.
 Overlap will be assumed to be unity.
 Keep J ints in memory in canonical form, NReq=884130.
 Requested convergence on RMS density matrix=1.00D-08 within 128 cycles.
 Requested convergence on MAX density matrix=1.00D-06.
 Requested convergence on             energy=1.00D-06.
 No special actions if energy rises.
 SCF Done:  E(RPM6) = -0.141196859222     A.U. after   12 cycles
            NFock= 11  Conv=0.49D-08     -V/T= 0.9915
 Calling FoFJK, ICntrl=      2127 FMM=F ISym2X=0 I1Cent= 0 IOpClX= 0 NMat=1 NMatS=1 NMatT=0.
 ***** Axes restored to original set *****
 -------------------------------------------------------------------
 Center     Atomic                   Forces (Hartrees/Bohr)
 Number     Number              X              Y              Z
 -------------------------------------------------------------------
      1        6           0.004020538    0.001840594   -0.004380559
      2        8          -0.000688797   -0.000580732    0.002579721
      3        8          -0.001378115   -0.001605781    0.000557755
      4        1           0.000368856   -0.000042840    0.000136749
      5        6          -0.000854497    0.002437143    0.001964262
      6        1           0.000542358    0.000371990   -0.000233760
      7        1          -0.000638978   -0.001014880   -0.000506906
      8        7          -0.000439745   -0.000940373   -0.000071192
      9        1          -0.000477473    0.000086088    0.000542327
     10        1          -0.000454147   -0.000551208   -0.000588396
 -------------------------------------------------------------------
 Cartesian Forces:  Max     0.004380559 RMS     0.001486976

 GradGradGradGradGradGradGradGradGradGradGradGradGradGradGradGradGradGrad
 Berny optimization.
 Using GEDIIS/GDIIS optimizer.
 FormGI is forming the generalized inverse of G from B-inverse, IUseBI=4.
 Internal  Forces:  Max     0.001993340 RMS     0.000859893
 Search for a local minimum.
 Step number   2 out of a maximum of   46
 All quantities printed in internal units (Hartrees-Bohrs-Radians)
 Mixed Optimization -- En-DIIS/RFO-DIIS
 Update second derivatives using D2CorX and points    1    2
 DE= -6.39D-04 DEPred=-5.27D-04 R= 1.21D+00
 TightC=F SS=  1.41D+00  RLast= 2.71D-01 DXNew= 5.0454D-01 8.1158D-01
 Trust test= 1.21D+00 RLast= 2.71D-01 DXMaxT set to 5.05D-01
 ITU=  1  0
 Use linear search instead of GDIIS.
     Eigenvalues ---    0.00243   0.00559   0.01444   0.02042   0.03981
     Eigenvalues ---    0.05478   0.06550   0.09522   0.12933   0.15964
     Eigenvalues ---    0.16000   0.16223   0.21632   0.23238   0.25223
     Eigenvalues ---    0.31372   0.32017   0.32570   0.35975   0.44343
     Eigenvalues ---    0.44997   0.48504   0.49453   1.01525
 RFO step:  Lambda=-1.16851794D-03 EMin= 2.42617868D-03
 Quartic linear search produced a step of  0.43306.
 Iteration  1 RMS(Cart)=  0.08787386 RMS(Int)=  0.01257513
 Iteration  2 RMS(Cart)=  0.01079065 RMS(Int)=  0.00070450
 Iteration  3 RMS(Cart)=  0.00015294 RMS(Int)=  0.00068855
 Iteration  4 RMS(Cart)=  0.00000004 RMS(Int)=  0.00068855
 Variable       Old X    -DE/DX   Delta X   Delta X   Delta X     New X
                                 (Linear)    (Quad)   (Total)
    R1        2.27620  -0.00104  -0.00116  -0.00330  -0.00446   2.27174
    R2        2.60365   0.00190   0.00237   0.00890   0.01126   2.61491
    R3        2.85991  -0.00199   0.00117  -0.00606  -0.00489   2.85502
    R4        1.88000  -0.00037  -0.00036  -0.00159  -0.00195   1.87806
    R5        2.10825  -0.00038   0.00057  -0.00053   0.00004   2.10828
    R6        2.11475   0.00105  -0.00132   0.00195   0.00063   2.11538
    R7        2.81090  -0.00190   0.00050  -0.00625  -0.00575   2.80514
    R8        1.91992  -0.00028  -0.00003  -0.00086  -0.00089   1.91903
    R9        1.92463  -0.00072  -0.00087  -0.00356  -0.00443   1.92020
    A1        2.09504  -0.00002  -0.00361  -0.00614  -0.01167   2.08337
    A2        2.29220   0.00167   0.00967   0.02524   0.03283   2.32502
    A3        1.89591  -0.00163  -0.00573  -0.01796  -0.02567   1.87024
    A4        1.96972  -0.00019  -0.00015  -0.00176  -0.00191   1.96781
    A5        1.90061   0.00009   0.00381   0.00675   0.01008   1.91069
    A6        1.90002  -0.00029  -0.00808  -0.01627  -0.02417   1.87585
    A7        1.91164   0.00018   0.00949   0.01726   0.02646   1.93810
    A8        1.85303   0.00000  -0.00385  -0.00673  -0.01056   1.84247
    A9        2.01736  -0.00023   0.00215   0.00122   0.00280   2.02016
   A10        1.87759   0.00024  -0.00468  -0.00474  -0.00918   1.86841
   A11        1.92267  -0.00047   0.00116  -0.00338  -0.00224   1.92043
   A12        1.94130  -0.00051   0.00434   0.00178   0.00609   1.94740
   A13        1.88390   0.00032   0.00210   0.00292   0.00498   1.88888
    D1        0.02251   0.00053  -0.00694   0.06149   0.05322   0.07573
    D2       -3.11043  -0.00068   0.01375  -0.05973  -0.04466   3.12810
    D3        2.14480  -0.00122  -0.02155  -0.20581  -0.22750   1.91731
    D4       -2.12528  -0.00133  -0.02844  -0.21895  -0.24763  -2.37290
    D5       -0.07670  -0.00111  -0.03322  -0.22422  -0.25801  -0.33471
    D6       -1.00677   0.00016  -0.04494  -0.06632  -0.11077  -1.11754
    D7        1.00634   0.00005  -0.05183  -0.07946  -0.13090   0.87544
    D8        3.05491   0.00027  -0.05660  -0.08473  -0.14128   2.91363
    D9        2.99323  -0.00037  -0.01062  -0.07414  -0.08464   2.90859
   D10        0.90503  -0.00013  -0.01673  -0.07672  -0.09335   0.81169
   D11        0.83907  -0.00045  -0.02458  -0.09799  -0.12265   0.71643
   D12       -1.24912  -0.00021  -0.03069  -0.10057  -0.13135  -1.38048
   D13       -1.22737  -0.00048  -0.01765  -0.08681  -0.10448  -1.33185
   D14        2.96762  -0.00024  -0.02376  -0.08939  -0.11319   2.85443
         Item               Value     Threshold  Converged?
 Maximum Force            0.001993     0.000450     NO 
 RMS     Force            0.000860     0.000300     NO 
 Maximum Displacement     0.351753     0.001800     NO 
 RMS     Displacement     0.096061     0.001200     NO 
 Predicted change in Energy=-7.802732D-04
 GradGradGradGradGradGradGradGradGradGradGradGradGradGradGradGradGradGrad

                          Input orientation:                          
 ---------------------------------------------------------------------
 Center     Atomic      Atomic             Coordinates (Angstroms)
 Number     Number       Type             X           Y           Z
 ---------------------------------------------------------------------
      1          6           0       -0.533792    0.167840    0.134599
      2          8           0       -0.809574    1.332172    0.018633
      3          8           0       -1.549866   -0.771228    0.157284
      4          1           0       -2.446297   -0.371293    0.001884
      5          6           0        0.758766   -0.567558    0.401129
      6          1           0        0.734088   -1.002873    1.428056
      7          1           0        0.797272   -1.443027   -0.295397
      8          7           0        1.932095    0.287257    0.091148
      9          1           0        2.775693   -0.127160    0.475663
     10          1           0        1.829132    1.219381    0.482367
 ---------------------------------------------------------------------
                    Distance matrix (angstroms):
                    1          2          3          4          5
     1  C    0.000000
     2  O    1.202153   0.000000
     3  O    1.383752   2.234177   0.000000
     4  H    1.991470   2.362400   0.993824   0.000000
     5  C    1.510812   2.492983   2.330391   3.235791   0.000000
     6  H    2.156646   3.133975   2.623922   3.542275   1.115656
     7  H    2.133429   3.222157   2.483000   3.428955   1.119409
     8  N    2.469160   2.934937   3.639893   4.428541   1.484418
     9  H    3.340066   3.897777   4.384820   5.249119   2.065793
    10  H    2.609615   2.681518   3.935204   4.586982   2.084570
                    6          7          8          9         10
     6  H    0.000000
     7  H    1.779892   0.000000
     8  N    2.210652   2.105023   0.000000
     9  H    2.417039   2.498036   1.015505   0.000000
    10  H    2.651766   2.959403   1.016125   1.645964   0.000000
 Stoichiometry    C2H5NO2
 Framework group  C1[X(C2H5NO2)]
 Deg. of freedom    24
 Full point group                 C1      NOp   1
 Largest Abelian subgroup         C1      NOp   1
 Largest concise Abelian subgroup C1      NOp   1
                         Standard orientation:                         
 ---------------------------------------------------------------------
 Center     Atomic      Atomic             Coordinates (Angstroms)
 Number     Number       Type             X           Y           Z
 ---------------------------------------------------------------------
      1          6           0       -0.521490    0.137364   -0.007447
      2          8           0       -0.742189    1.318494    0.029927
      3          8           0       -1.582320   -0.750503   -0.040623
      4          1           0       -2.463423   -0.294485   -0.098866
      5          6           0        0.742841   -0.682694    0.099902
      6          1           0        0.745555   -1.237012    1.068103
      7          1           0        0.702373   -1.468690   -0.696118
      8          7           0        1.942268    0.149104   -0.170260
      9          1           0        2.781026   -0.346486    0.116315
     10          1           0        1.906565    1.030999    0.333223
 ---------------------------------------------------------------------
 Rotational constants (GHZ):     10.0702564      3.8182289      2.8405773
 Standard basis: VSTO-6G (5D, 7F)
 There are    25 symmetry adapted cartesian basis functions of A   symmetry.
 There are    25 symmetry adapted basis functions of A   symmetry.
    25 basis functions,   150 primitive gaussians,    25 cartesian basis functions
    15 alpha electrons       15 beta electrons
       nuclear repulsion energy       124.6242748925 Hartrees.
 Integral buffers will be    262144 words long.
 Regular integral format.
 Two-electron integral symmetry is turned off.
 Do NDO integrals.
 One-electron integrals computed using PRISM.
 NBasis=    25 RedAO= F EigKep=  0.00D+00  NBF=    25
 NBsUse=    25 1.00D-04 EigRej=  0.00D+00 NBFU=    25
 Initial guess from the checkpoint file:  "D:\mindmap\gaussian\calculate\opt_freq\gly\gly.chk"
 B after Tr=     0.000000    0.000000    0.000000
         Rot=    0.999912    0.010035   -0.000367   -0.008648 Ang=   1.52 deg.
 Overlap will be assumed to be unity.
 Keep J ints in memory in canonical form, NReq=884130.
 Requested convergence on RMS density matrix=1.00D-08 within 128 cycles.
 Requested convergence on MAX density matrix=1.00D-06.
 Requested convergence on             energy=1.00D-06.
 No special actions if energy rises.
 SCF Done:  E(RPM6) = -0.141523332656     A.U. after   12 cycles
            NFock= 11  Conv=0.71D-08     -V/T= 0.9915
 Calling FoFJK, ICntrl=      2127 FMM=F ISym2X=0 I1Cent= 0 IOpClX= 0 NMat=1 NMatS=1 NMatT=0.
 ***** Axes restored to original set *****
 -------------------------------------------------------------------
 Center     Atomic                   Forces (Hartrees/Bohr)
 Number     Number              X              Y              Z
 -------------------------------------------------------------------
      1        6          -0.001416360   -0.002910702    0.008842765
      2        8           0.002530626    0.002750714   -0.002258719
      3        8          -0.000208693   -0.000182342   -0.002610520
      4        1           0.000081491   -0.000111613    0.000110232
      5        6          -0.000457793    0.000613499   -0.003209022
      6        1          -0.000449816    0.001882802    0.000020020
      7        1           0.000935111   -0.003104621   -0.000888425
      8        7          -0.000334358    0.000104093   -0.001664093
      9        1          -0.000024773    0.000554664    0.000834540
     10        1          -0.000655435    0.000403506    0.000823222
 -------------------------------------------------------------------
 Cartesian Forces:  Max     0.008842765 RMS     0.002204302

 GradGradGradGradGradGradGradGradGradGradGradGradGradGradGradGradGradGrad
 Berny optimization.
 Using GEDIIS/GDIIS optimizer.
 FormGI is forming the generalized inverse of G from B-inverse, IUseBI=4.
 Internal  Forces:  Max     0.004425463 RMS     0.001668118
 Search for a local minimum.
 Step number   3 out of a maximum of   46
 All quantities printed in internal units (Hartrees-Bohrs-Radians)
 Mixed Optimization -- RFO/linear search
 Update second derivatives using D2CorX and points    2    3
 DE= -3.26D-04 DEPred=-7.80D-04 R= 4.18D-01
 Trust test= 4.18D-01 RLast= 5.56D-01 DXMaxT set to 5.05D-01
 ITU=  0  1  0
 Use linear search instead of GDIIS.
     Eigenvalues ---    0.00186   0.00560   0.02023   0.03057   0.03925
     Eigenvalues ---    0.05601   0.06541   0.09815   0.13393   0.16000
     Eigenvalues ---    0.16039   0.16168   0.22805   0.24611   0.25581
     Eigenvalues ---    0.31430   0.32040   0.33175   0.35446   0.44384
     Eigenvalues ---    0.44989   0.48470   0.49229   1.02005
 RFO step:  Lambda=-6.91273496D-04 EMin= 1.86200206D-03
 Quartic linear search produced a step of -0.32427.
 Iteration  1 RMS(Cart)=  0.05304093 RMS(Int)=  0.00163070
 Iteration  2 RMS(Cart)=  0.00263514 RMS(Int)=  0.00012626
 Iteration  3 RMS(Cart)=  0.00000418 RMS(Int)=  0.00012624
 Iteration  4 RMS(Cart)=  0.00000000 RMS(Int)=  0.00012624
 Variable       Old X    -DE/DX   Delta X   Delta X   Delta X     New X
                                 (Linear)    (Quad)   (Total)
    R1        2.27174   0.00230   0.00145  -0.00099   0.00045   2.27219
    R2        2.61491   0.00025  -0.00365   0.00686   0.00321   2.61812
    R3        2.85502  -0.00179   0.00159  -0.00876  -0.00717   2.84785
    R4        1.87806  -0.00014   0.00063  -0.00136  -0.00073   1.87733
    R5        2.10828  -0.00071  -0.00001  -0.00193  -0.00194   2.10635
    R6        2.11538   0.00301  -0.00020   0.00773   0.00753   2.12290
    R7        2.80514  -0.00019   0.00187  -0.00560  -0.00374   2.80140
    R8        1.91903   0.00007   0.00029  -0.00060  -0.00031   1.91872
    R9        1.92020   0.00075   0.00144  -0.00163  -0.00019   1.92000
    A1        2.08337   0.00197   0.00378   0.00178   0.00523   2.08860
    A2        2.32502  -0.00443  -0.01065   0.00775  -0.00322   2.32181
    A3        1.87024   0.00268   0.00832  -0.00569   0.00231   1.87255
    A4        1.96781   0.00014   0.00062  -0.00086  -0.00024   1.96757
    A5        1.91069  -0.00022  -0.00327  -0.00631  -0.00959   1.90110
    A6        1.87585   0.00280   0.00784   0.00694   0.01477   1.89062
    A7        1.93810  -0.00363  -0.00858  -0.00067  -0.00929   1.92881
    A8        1.84247  -0.00025   0.00342   0.00007   0.00354   1.84601
    A9        2.02016   0.00094  -0.00091  -0.00474  -0.00566   2.01450
   A10        1.86841   0.00081   0.00298   0.00615   0.00909   1.87751
   A11        1.92043   0.00023   0.00073  -0.00477  -0.00408   1.91635
   A12        1.94740  -0.00150  -0.00198  -0.00789  -0.00990   1.93749
   A13        1.88888   0.00003  -0.00162  -0.00277  -0.00446   1.88442
    D1        0.07573  -0.00100  -0.01726  -0.02136  -0.03831   0.03741
    D2        3.12810   0.00085   0.01448   0.01664   0.03082  -3.12427
    D3        1.91731   0.00012   0.07377  -0.12148  -0.04761   1.86970
    D4       -2.37290   0.00119   0.08030  -0.12090  -0.04055  -2.41345
    D5       -0.33471   0.00183   0.08366  -0.10978  -0.02601  -0.36072
    D6       -1.11754  -0.00266   0.03592  -0.16632  -0.13047  -1.24801
    D7        0.87544  -0.00159   0.04245  -0.16574  -0.12341   0.75202
    D8        2.91363  -0.00094   0.04581  -0.15462  -0.10888   2.80475
    D9        2.90859  -0.00213   0.02745  -0.10144  -0.07396   2.83463
   D10        0.81169  -0.00135   0.03027  -0.08963  -0.05937   0.75231
   D11        0.71643   0.00056   0.03977  -0.08826  -0.04849   0.66794
   D12       -1.38048   0.00134   0.04259  -0.07645  -0.03390  -1.41437
   D13       -1.33185  -0.00025   0.03388  -0.08985  -0.05594  -1.38779
   D14        2.85443   0.00053   0.03670  -0.07804  -0.04135   2.81308
         Item               Value     Threshold  Converged?
 Maximum Force            0.004425     0.000450     NO 
 RMS     Force            0.001668     0.000300     NO 
 Maximum Displacement     0.164368     0.001800     NO 
 RMS     Displacement     0.053581     0.001200     NO 
 Predicted change in Energy=-4.963093D-04
 GradGradGradGradGradGradGradGradGradGradGradGradGradGradGradGradGradGrad

                          Input orientation:                          
 ---------------------------------------------------------------------
 Center     Atomic      Atomic             Coordinates (Angstroms)
 Number     Number       Type             X           Y           Z
 ---------------------------------------------------------------------
      1          6           0       -0.529055    0.170419    0.190127
      2          8           0       -0.794965    1.339990    0.105613
      3          8           0       -1.541644   -0.771121    0.102736
      4          1           0       -2.432181   -0.362967   -0.062416
      5          6           0        0.759774   -0.577514    0.415099
      6          1           0        0.762927   -0.988879    1.451039
      7          1           0        0.774277   -1.469525   -0.267630
      8          7           0        1.922086    0.273283    0.064667
      9          1           0        2.765889   -0.109058    0.480273
     10          1           0        1.800409    1.218884    0.415857
 ---------------------------------------------------------------------
                    Distance matrix (angstroms):
                    1          2          3          4          5
     1  C    0.000000
     2  O    1.202392   0.000000
     3  O    1.385450   2.239269   0.000000
     4  H    1.992529   2.368285   0.993439   0.000000
     5  C    1.507016   2.487934   2.330575   3.234599   0.000000
     6  H    2.145481   3.108187   2.678878   3.590408   1.114631
     7  H    2.144208   3.239630   2.447127   3.398228   1.123393
     8  N    2.456504   2.919231   3.617963   4.402341   1.482440
     9  H    3.319480   3.862615   4.374438   5.232487   2.061115
    10  H    2.564495   2.616655   3.902241   4.543767   2.076047
                    6          7          8          9         10
     6  H    0.000000
     7  H    1.784648   0.000000
     8  N    2.204252   2.113117   0.000000
     9  H    2.393393   2.525222   1.015341   0.000000
    10  H    2.649941   2.957642   1.016023   1.643086   0.000000
 Stoichiometry    C2H5NO2
 Framework group  C1[X(C2H5NO2)]
 Deg. of freedom    24
 Full point group                 C1      NOp   1
 Largest Abelian subgroup         C1      NOp   1
 Largest concise Abelian subgroup C1      NOp   1
                         Standard orientation:                         
 ---------------------------------------------------------------------
 Center     Atomic      Atomic             Coordinates (Angstroms)
 Number     Number       Type             X           Y           Z
 ---------------------------------------------------------------------
      1          6           0       -0.517938    0.136460    0.030321
      2          8           0       -0.729696    1.319980    0.043873
      3          8           0       -1.578544   -0.748806   -0.074040
      4          1           0       -2.454668   -0.289309   -0.164530
      5          6           0        0.741651   -0.684135    0.135942
      6          1           0        0.772806   -1.171235    1.138022
      7          1           0        0.680502   -1.522545   -0.609270
      8          7           0        1.926795    0.136520   -0.209870
      9          1           0        2.769221   -0.313788    0.134307
     10          1           0        1.868216    1.057898    0.214316
 ---------------------------------------------------------------------
 Rotational constants (GHZ):      9.9852347      3.8541140      2.8662504
 Standard basis: VSTO-6G (5D, 7F)
 There are    25 symmetry adapted cartesian basis functions of A   symmetry.
 There are    25 symmetry adapted basis functions of A   symmetry.
    25 basis functions,   150 primitive gaussians,    25 cartesian basis functions
    15 alpha electrons       15 beta electrons
       nuclear repulsion energy       124.7416133654 Hartrees.
 Integral buffers will be    262144 words long.
 Regular integral format.
 Two-electron integral symmetry is turned off.
 Do NDO integrals.
 One-electron integrals computed using PRISM.
 NBasis=    25 RedAO= F EigKep=  0.00D+00  NBF=    25
 NBsUse=    25 1.00D-04 EigRej=  0.00D+00 NBFU=    25
 Initial guess from the checkpoint file:  "D:\mindmap\gaussian\calculate\opt_freq\gly\gly.chk"
 B after Tr=     0.000000    0.000000    0.000000
         Rot=    0.999989    0.004686   -0.000700    0.000625 Ang=   0.55 deg.
 Overlap will be assumed to be unity.
 Keep J ints in memory in canonical form, NReq=884130.
 Requested convergence on RMS density matrix=1.00D-08 within 128 cycles.
 Requested convergence on MAX density matrix=1.00D-06.
 Requested convergence on             energy=1.00D-06.
 No special actions if energy rises.
 SCF Done:  E(RPM6) = -0.142074817582     A.U. after   12 cycles
            NFock= 11  Conv=0.40D-08     -V/T= 0.9914
 Calling FoFJK, ICntrl=      2127 FMM=F ISym2X=0 I1Cent= 0 IOpClX= 0 NMat=1 NMatS=1 NMatT=0.
 ***** Axes restored to original set *****
 -------------------------------------------------------------------
 Center     Atomic                   Forces (Hartrees/Bohr)
 Number     Number              X              Y              Z
 -------------------------------------------------------------------
      1        6          -0.004473619   -0.005274677   -0.001079459
      2        8           0.001799023    0.002522290    0.001016553
      3        8           0.000807050    0.001990873   -0.000328363
      4        1          -0.000077966   -0.000024595    0.000223789
      5        6          -0.001256153   -0.000951723    0.000264057
      6        1           0.000084608    0.000328465    0.000562646
      7        1           0.000678873   -0.000746659    0.000038717
      8        7           0.001631997   -0.000023660   -0.001597398
      9        1           0.000736283    0.000564507    0.000415643
     10        1           0.000069903    0.001615177    0.000483815
 -------------------------------------------------------------------
 Cartesian Forces:  Max     0.005274677 RMS     0.001607419

 GradGradGradGradGradGradGradGradGradGradGradGradGradGradGradGradGradGrad
 Berny optimization.
 Using GEDIIS/GDIIS optimizer.
 FormGI is forming the generalized inverse of G from B-inverse, IUseBI=4.
 Internal  Forces:  Max     0.004525761 RMS     0.001344236
 Search for a local minimum.
 Step number   4 out of a maximum of   46
 All quantities printed in internal units (Hartrees-Bohrs-Radians)
 Mixed Optimization -- RFO/linear search
 Update second derivatives using D2CorX and points    3    4
 DE= -5.51D-04 DEPred=-4.96D-04 R= 1.11D+00
 TightC=F SS=  1.41D+00  RLast= 2.63D-01 DXNew= 8.4853D-01 7.8968D-01
 Trust test= 1.11D+00 RLast= 2.63D-01 DXMaxT set to 7.90D-01
 ITU=  1  0  1  0
 Use linear search instead of GDIIS.
     Eigenvalues ---    0.00169   0.00560   0.02006   0.03774   0.04040
     Eigenvalues ---    0.05063   0.06516   0.09679   0.12934   0.15923
     Eigenvalues ---    0.16003   0.16421   0.20556   0.23625   0.25224
     Eigenvalues ---    0.31305   0.31837   0.32255   0.38119   0.44550
     Eigenvalues ---    0.45090   0.48490   0.49884   1.01411
 RFO step:  Lambda=-4.26038261D-04 EMin= 1.68800611D-03
 Quartic linear search produced a step of  0.22973.
 Iteration  1 RMS(Cart)=  0.05348659 RMS(Int)=  0.00157778
 Iteration  2 RMS(Cart)=  0.00188021 RMS(Int)=  0.00007857
 Iteration  3 RMS(Cart)=  0.00000216 RMS(Int)=  0.00007856
 Iteration  4 RMS(Cart)=  0.00000000 RMS(Int)=  0.00007856
 Variable       Old X    -DE/DX   Delta X   Delta X   Delta X     New X
                                 (Linear)    (Quad)   (Total)
    R1        2.27219   0.00198   0.00010   0.00190   0.00200   2.27419
    R2        2.61812  -0.00186   0.00074  -0.00294  -0.00221   2.61591
    R3        2.84785   0.00130  -0.00165   0.00493   0.00328   2.85113
    R4        1.87733   0.00002  -0.00017  -0.00020  -0.00037   1.87696
    R5        2.10635   0.00040  -0.00045   0.00157   0.00112   2.10747
    R6        2.12290   0.00058   0.00173   0.00258   0.00431   2.12721
    R7        2.80140   0.00331  -0.00086   0.01191   0.01105   2.81245
    R8        1.91872   0.00057  -0.00007   0.00151   0.00144   1.92015
    R9        1.92000   0.00166  -0.00004   0.00415   0.00410   1.92411
    A1        2.08860   0.00105   0.00120   0.00370   0.00468   2.09328
    A2        2.32181  -0.00453  -0.00074  -0.01814  -0.01910   2.30271
    A3        1.87255   0.00347   0.00053   0.01426   0.01457   1.88712
    A4        1.96757   0.00010  -0.00006   0.00077   0.00071   1.96829
    A5        1.90110   0.00005  -0.00220  -0.00469  -0.00700   1.89410
    A6        1.89062   0.00139   0.00339   0.01461   0.01802   1.90864
    A7        1.92881  -0.00143  -0.00213  -0.00542  -0.00763   1.92117
    A8        1.84601  -0.00015   0.00081   0.00040   0.00125   1.84725
    A9        2.01450   0.00037  -0.00130  -0.00285  -0.00427   2.01023
   A10        1.87751  -0.00007   0.00209  -0.00024   0.00187   1.87938
   A11        1.91635   0.00093  -0.00094   0.00718   0.00623   1.92258
   A12        1.93749   0.00025  -0.00227   0.00274   0.00046   1.93795
   A13        1.88442  -0.00061  -0.00103  -0.00434  -0.00538   1.87904
    D1        0.03741   0.00002  -0.00880  -0.00586  -0.01477   0.02265
    D2       -3.12427  -0.00042   0.00708  -0.01419  -0.00700  -3.13127
    D3        1.86970  -0.00083  -0.01094  -0.08170  -0.09262   1.77708
    D4       -2.41345  -0.00024  -0.00932  -0.07595  -0.08530  -2.49875
    D5       -0.36072  -0.00031  -0.00598  -0.07063  -0.07668  -0.43740
    D6       -1.24801  -0.00043  -0.02997  -0.07225  -0.10214  -1.35015
    D7        0.75202   0.00016  -0.02835  -0.06650  -0.09483   0.65720
    D8        2.80475   0.00009  -0.02501  -0.06118  -0.08620   2.71855
    D9        2.83463  -0.00072  -0.01699  -0.05248  -0.06944   2.76518
   D10        0.75231  -0.00071  -0.01364  -0.05343  -0.06705   0.68526
   D11        0.66794   0.00011  -0.01114  -0.03945  -0.05061   0.61733
   D12       -1.41437   0.00012  -0.00779  -0.04040  -0.04822  -1.46259
   D13       -1.38779   0.00013  -0.01285  -0.03805  -0.05090  -1.43869
   D14        2.81308   0.00014  -0.00950  -0.03900  -0.04851   2.76457
         Item               Value     Threshold  Converged?
 Maximum Force            0.004526     0.000450     NO 
 RMS     Force            0.001344     0.000300     NO 
 Maximum Displacement     0.184747     0.001800     NO 
 RMS     Displacement     0.053738     0.001200     NO 
 Predicted change in Energy=-2.425879D-04
 GradGradGradGradGradGradGradGradGradGradGradGradGradGradGradGradGradGrad

                          Input orientation:                          
 ---------------------------------------------------------------------
 Center     Atomic      Atomic             Coordinates (Angstroms)
 Number     Number       Type             X           Y           Z
 ---------------------------------------------------------------------
      1          6           0       -0.529548    0.160208    0.220235
      2          8           0       -0.778910    1.337420    0.203377
      3          8           0       -1.545149   -0.763654    0.043398
      4          1           0       -2.429762   -0.338258   -0.108356
      5          6           0        0.760638   -0.594308    0.426298
      6          1           0        0.781416   -0.981702    1.471869
      7          1           0        0.771784   -1.502814   -0.238254
      8          7           0        1.918317    0.259401    0.044256
      9          1           0        2.764813   -0.076450    0.494932
     10          1           0        1.773916    1.223667    0.337610
 ---------------------------------------------------------------------
                    Distance matrix (angstroms):
                    1          2          3          4          5
     1  C    0.000000
     2  O    1.203450   0.000000
     3  O    1.384283   2.242148   0.000000
     4  H    1.991796   2.372843   0.993243   0.000000
     5  C    1.508753   2.480216   2.343489   3.245006   0.000000
     6  H    2.142236   3.069530   2.738791   3.636316   1.115224
     7  H    2.160861   3.265979   2.448236   3.409246   1.125672
     8  N    2.456186   2.909034   3.611404   4.391615   1.488287
     9  H    3.314254   3.826487   4.387699   5.236039   2.071137
    10  H    2.539817   2.558882   3.879716   4.506595   2.083178
                    6          7          8          9         10
     6  H    0.000000
     7  H    1.787784   0.000000
     8  N    2.207025   2.121262   0.000000
     9  H    2.389090   2.558172   1.016100   0.000000
    10  H    2.671189   2.961349   1.018193   1.642233   0.000000
 Stoichiometry    C2H5NO2
 Framework group  C1[X(C2H5NO2)]
 Deg. of freedom    24
 Full point group                 C1      NOp   1
 Largest Abelian subgroup         C1      NOp   1
 Largest concise Abelian subgroup C1      NOp   1
                         Standard orientation:                         
 ---------------------------------------------------------------------
 Center     Atomic      Atomic             Coordinates (Angstroms)
 Number     Number       Type             X           Y           Z
 ---------------------------------------------------------------------
      1          6           0       -0.519657    0.130853    0.044302
      2          8           0       -0.713549    1.318398    0.065162
      3          8           0       -1.584882   -0.740502   -0.104950
      4          1           0       -2.454409   -0.271103   -0.205537
      5          6           0        0.741481   -0.687287    0.172801
      6          1           0        0.791891   -1.100460    1.207437
      7          1           0        0.679104   -1.578960   -0.511426
      8          7           0        1.919495    0.120989   -0.244298
      9          1           0        2.768950   -0.264470    0.158575
     10          1           0        1.834503    1.083505    0.076725
 ---------------------------------------------------------------------
 Rotational constants (GHZ):      9.9307017      3.8541351      2.8788323
 Standard basis: VSTO-6G (5D, 7F)
 There are    25 symmetry adapted cartesian basis functions of A   symmetry.
 There are    25 symmetry adapted basis functions of A   symmetry.
    25 basis functions,   150 primitive gaussians,    25 cartesian basis functions
    15 alpha electrons       15 beta electrons
       nuclear repulsion energy       124.7145460060 Hartrees.
 Integral buffers will be    262144 words long.
 Regular integral format.
 Two-electron integral symmetry is turned off.
 Do NDO integrals.
 One-electron integrals computed using PRISM.
 NBasis=    25 RedAO= F EigKep=  0.00D+00  NBF=    25
 NBsUse=    25 1.00D-04 EigRej=  0.00D+00 NBFU=    25
 Initial guess from the checkpoint file:  "D:\mindmap\gaussian\calculate\opt_freq\gly\gly.chk"
 B after Tr=     0.000000    0.000000    0.000000
         Rot=    0.999988    0.004732   -0.000540    0.001459 Ang=   0.57 deg.
 Overlap will be assumed to be unity.
 Keep J ints in memory in canonical form, NReq=884130.
 Requested convergence on RMS density matrix=1.00D-08 within 128 cycles.
 Requested convergence on MAX density matrix=1.00D-06.
 Requested convergence on             energy=1.00D-06.
 No special actions if energy rises.
 SCF Done:  E(RPM6) = -0.142408657106     A.U. after   12 cycles
            NFock= 11  Conv=0.40D-08     -V/T= 0.9914
 Calling FoFJK, ICntrl=      2127 FMM=F ISym2X=0 I1Cent= 0 IOpClX= 0 NMat=1 NMatS=1 NMatT=0.
 ***** Axes restored to original set *****
 -------------------------------------------------------------------
 Center     Atomic                   Forces (Hartrees/Bohr)
 Number     Number              X              Y              Z
 -------------------------------------------------------------------
      1        6          -0.003427207   -0.005761434   -0.003235973
      2        8           0.001033531    0.001801363    0.001435029
      3        8           0.002454643    0.002342176    0.000700109
      4        1          -0.000192114    0.000218189    0.000064993
      5        6           0.000564944    0.000716145    0.000629694
      6        1           0.000466671    0.000164869    0.000034801
      7        1           0.000235236    0.001472336    0.000661916
      8        7          -0.000402831   -0.001560770   -0.001001450
      9        1          -0.000410275    0.000017031    0.000415283
     10        1          -0.000322599    0.000590096    0.000295596
 -------------------------------------------------------------------
 Cartesian Forces:  Max     0.005761434 RMS     0.001658228

 GradGradGradGradGradGradGradGradGradGradGradGradGradGradGradGradGradGrad
 Berny optimization.
 Using GEDIIS/GDIIS optimizer.
 FormGI is forming the generalized inverse of G from B-inverse, IUseBI=4.
 Internal  Forces:  Max     0.003466453 RMS     0.000988405
 Search for a local minimum.
 Step number   5 out of a maximum of   46
 All quantities printed in internal units (Hartrees-Bohrs-Radians)
 Mixed Optimization -- En-DIIS/RFO-DIIS
 Update second derivatives using D2CorX and points    3    4    5
 DE= -3.34D-04 DEPred=-2.43D-04 R= 1.38D+00
 TightC=F SS=  1.41D+00  RLast= 2.63D-01 DXNew= 1.3281D+00 7.8980D-01
 Trust test= 1.38D+00 RLast= 2.63D-01 DXMaxT set to 7.90D-01
 ITU=  1  1  0  1  0
 Use linear search instead of GDIIS.
     Eigenvalues ---    0.00103   0.00560   0.02006   0.03921   0.04245
     Eigenvalues ---    0.05380   0.06598   0.09308   0.12391   0.15582
     Eigenvalues ---    0.16005   0.16559   0.16817   0.23351   0.25230
     Eigenvalues ---    0.31674   0.32120   0.34402   0.40987   0.44391
     Eigenvalues ---    0.45277   0.48529   0.54662   1.00832
 RFO step:  Lambda=-2.89363587D-04 EMin= 1.03494316D-03
 Quartic linear search produced a step of  0.73741.
 Iteration  1 RMS(Cart)=  0.08865755 RMS(Int)=  0.00426864
 Iteration  2 RMS(Cart)=  0.00505955 RMS(Int)=  0.00004409
 Iteration  3 RMS(Cart)=  0.00001519 RMS(Int)=  0.00004260
 Iteration  4 RMS(Cart)=  0.00000000 RMS(Int)=  0.00004260
 Variable       Old X    -DE/DX   Delta X   Delta X   Delta X     New X
                                 (Linear)    (Quad)   (Total)
    R1        2.27419   0.00153   0.00148   0.00177   0.00325   2.27744
    R2        2.61591  -0.00347  -0.00163  -0.00759  -0.00922   2.60669
    R3        2.85113  -0.00045   0.00242  -0.00456  -0.00214   2.84899
    R4        1.87696   0.00025  -0.00027   0.00032   0.00004   1.87700
    R5        2.10747  -0.00002   0.00083  -0.00071   0.00012   2.10759
    R6        2.12721  -0.00158   0.00318  -0.00540  -0.00222   2.12499
    R7        2.81245  -0.00136   0.00815  -0.00808   0.00006   2.81252
    R8        1.92015  -0.00016   0.00106  -0.00080   0.00026   1.92041
    R9        1.92411   0.00069   0.00302   0.00156   0.00459   1.92869
    A1        2.09328   0.00085   0.00345   0.00420   0.00765   2.10093
    A2        2.30271  -0.00282  -0.01409  -0.01247  -0.02657   2.27614
    A3        1.88712   0.00196   0.01074   0.00819   0.01892   1.90604
    A4        1.96829  -0.00023   0.00053  -0.00221  -0.00168   1.96660
    A5        1.89410   0.00036  -0.00516   0.00329  -0.00199   1.89211
    A6        1.90864   0.00027   0.01329   0.00362   0.01692   1.92556
    A7        1.92117  -0.00032  -0.00563  -0.00076  -0.00645   1.91472
    A8        1.84725   0.00016   0.00092   0.00317   0.00406   1.85132
    A9        2.01023  -0.00008  -0.00315  -0.00224  -0.00550   2.00474
   A10        1.87938  -0.00036   0.00138  -0.00670  -0.00528   1.87409
   A11        1.92258  -0.00062   0.00459  -0.01029  -0.00575   1.91683
   A12        1.93795  -0.00037   0.00034  -0.00837  -0.00808   1.92987
   A13        1.87904   0.00022  -0.00397  -0.00396  -0.00803   1.87101
    D1        0.02265   0.00029  -0.01089   0.00002  -0.01092   0.01172
    D2       -3.13127  -0.00045  -0.00516  -0.00619  -0.01131   3.14061
    D3        1.77708  -0.00079  -0.06830  -0.09415  -0.16245   1.61463
    D4       -2.49875  -0.00027  -0.06290  -0.08667  -0.14956  -2.64832
    D5       -0.43740  -0.00073  -0.05654  -0.09311  -0.14971  -0.58711
    D6       -1.35015   0.00003  -0.07532  -0.08712  -0.16241  -1.51256
    D7        0.65720   0.00055  -0.06993  -0.07963  -0.14952   0.50767
    D8        2.71855   0.00009  -0.06357  -0.08607  -0.14967   2.56888
    D9        2.76518  -0.00023  -0.05121  -0.06463  -0.11578   2.64941
   D10        0.68526   0.00014  -0.04945  -0.04773  -0.09718   0.58808
   D11        0.61733  -0.00039  -0.03732  -0.06674  -0.10406   0.51328
   D12       -1.46259  -0.00003  -0.03556  -0.04984  -0.08546  -1.54805
   D13       -1.43869  -0.00029  -0.03753  -0.06468  -0.10219  -1.54088
   D14        2.76457   0.00007  -0.03577  -0.04779  -0.08359   2.68099
         Item               Value     Threshold  Converged?
 Maximum Force            0.003466     0.000450     NO 
 RMS     Force            0.000988     0.000300     NO 
 Maximum Displacement     0.310444     0.001800     NO 
 RMS     Displacement     0.089266     0.001200     NO 
 Predicted change in Energy=-2.455008D-04
 GradGradGradGradGradGradGradGradGradGradGradGradGradGradGradGradGradGrad

                          Input orientation:                          
 ---------------------------------------------------------------------
 Center     Atomic      Atomic             Coordinates (Angstroms)
 Number     Number       Type             X           Y           Z
 ---------------------------------------------------------------------
      1          6           0       -0.527253    0.144468    0.264829
      2          8           0       -0.763097    1.321853    0.367657
      3          8           0       -1.534055   -0.743437   -0.052549
      4          1           0       -2.411341   -0.296611   -0.184057
      5          6           0        0.763091   -0.613476    0.447726
      6          1           0        0.818553   -0.964562    1.504858
      7          1           0        0.765138   -1.540530   -0.188715
      8          7           0        1.907437    0.230306    0.007726
      9          1           0        2.744709   -0.029107    0.521946
     10          1           0        1.724335    1.214607    0.205944
 ---------------------------------------------------------------------
                    Distance matrix (angstroms):
                    1          2          3          4          5
     1  C    0.000000
     2  O    1.205168   0.000000
     3  O    1.379403   2.244186   0.000000
     4  H    1.986413   2.374978   0.993267   0.000000
     5  C    1.507620   2.466001   2.354580   3.252164   0.000000
     6  H    2.139817   3.003754   2.830049   3.705511   1.115287
     7  H    2.171450   3.292155   2.437250   3.411360   1.124495
     8  N    2.449732   2.907366   3.577105   4.355028   1.488320
     9  H    3.286636   3.762127   4.375859   5.211032   2.067319
    10  H    2.493654   2.494989   3.810230   4.420373   2.079503
                    6          7          8          9         10
     6  H    0.000000
     7  H    1.789631   0.000000
     8  N    2.203357   2.116435   0.000000
     9  H    2.356113   2.590008   1.016239   0.000000
    10  H    2.693769   2.943907   1.020620   1.639465   0.000000
 Stoichiometry    C2H5NO2
 Framework group  C1[X(C2H5NO2)]
 Deg. of freedom    24
 Full point group                 C1      NOp   1
 Largest Abelian subgroup         C1      NOp   1
 Largest concise Abelian subgroup C1      NOp   1
                         Standard orientation:                         
 ---------------------------------------------------------------------
 Center     Atomic      Atomic             Coordinates (Angstroms)
 Number     Number       Type             X           Y           Z
 ---------------------------------------------------------------------
      1          6           0       -0.521375    0.122790    0.063054
      2          8           0       -0.708899    1.312703    0.100089
      3          8           0       -1.573408   -0.742696   -0.153542
      4          1           0       -2.438700   -0.270614   -0.275962
      5          6           0        0.747151   -0.672684    0.239079
      6          1           0        0.837190   -0.958954    1.313233
      7          1           0        0.686461   -1.637044   -0.336086
      8          7           0        1.900785    0.096042   -0.302481
      9          1           0        2.750247   -0.163646    0.191197
     10          1           0        1.763106    1.097273   -0.160199
 ---------------------------------------------------------------------
 Rotational constants (GHZ):      9.8079554      3.8734849      2.9210333
 Standard basis: VSTO-6G (5D, 7F)
 There are    25 symmetry adapted cartesian basis functions of A   symmetry.
 There are    25 symmetry adapted basis functions of A   symmetry.
    25 basis functions,   150 primitive gaussians,    25 cartesian basis functions
    15 alpha electrons       15 beta electrons
       nuclear repulsion energy       124.8346951847 Hartrees.
 Integral buffers will be    262144 words long.
 Regular integral format.
 Two-electron integral symmetry is turned off.
 Do NDO integrals.
 One-electron integrals computed using PRISM.
 NBasis=    25 RedAO= F EigKep=  0.00D+00  NBF=    25
 NBsUse=    25 1.00D-04 EigRej=  0.00D+00 NBFU=    25
 Initial guess from the checkpoint file:  "D:\mindmap\gaussian\calculate\opt_freq\gly\gly.chk"
 B after Tr=     0.000000    0.000000    0.000000
         Rot=    0.999950    0.009730   -0.001108   -0.001972 Ang=   1.14 deg.
 Overlap will be assumed to be unity.
 Keep J ints in memory in canonical form, NReq=884130.
 Requested convergence on RMS density matrix=1.00D-08 within 128 cycles.
 Requested convergence on MAX density matrix=1.00D-06.
 Requested convergence on             energy=1.00D-06.
 No special actions if energy rises.
 SCF Done:  E(RPM6) = -0.142638841743     A.U. after   12 cycles
            NFock= 11  Conv=0.51D-08     -V/T= 0.9914
 Calling FoFJK, ICntrl=      2127 FMM=F ISym2X=0 I1Cent= 0 IOpClX= 0 NMat=1 NMatS=1 NMatT=0.
 ***** Axes restored to original set *****
 -------------------------------------------------------------------
 Center     Atomic                   Forces (Hartrees/Bohr)
 Number     Number              X              Y              Z
 -------------------------------------------------------------------
      1        6          -0.002988107   -0.004271523   -0.003288814
      2        8          -0.000056188    0.001439700    0.000990682
      3        8           0.002503336    0.001725148    0.001421345
      4        1          -0.000805443    0.000256997   -0.000199578
      5        6           0.000196456   -0.000534701    0.000805560
      6        1           0.000326778   -0.000202290   -0.000085888
      7        1          -0.000521658    0.001227788    0.000386927
      8        7           0.000639382   -0.000222693    0.000136531
      9        1           0.000269058    0.000076448    0.000025384
     10        1           0.000436386    0.000505126   -0.000192150
 -------------------------------------------------------------------
 Cartesian Forces:  Max     0.004271523 RMS     0.001380365

 GradGradGradGradGradGradGradGradGradGradGradGradGradGradGradGradGradGrad
 Berny optimization.
 Using GEDIIS/GDIIS optimizer.
 FormGI is forming the generalized inverse of G from B-inverse, IUseBI=4.
 Internal  Forces:  Max     0.002796252 RMS     0.000803888
 Search for a local minimum.
 Step number   6 out of a maximum of   46
 All quantities printed in internal units (Hartrees-Bohrs-Radians)
 Mixed Optimization -- En-DIIS/RFO-DIIS
 Swapping is turned off.
 Update second derivatives using D2CorX and points    5    6
 DE= -2.30D-04 DEPred=-2.46D-04 R= 9.38D-01
 TightC=F SS=  1.41D+00  RLast= 4.50D-01 DXNew= 1.3283D+00 1.3509D+00
 Trust test= 9.38D-01 RLast= 4.50D-01 DXMaxT set to 1.33D+00
 ITU=  1  1  1  0  1  0
     Eigenvalues ---    0.00133   0.00561   0.02016   0.04083   0.04111
     Eigenvalues ---    0.05538   0.06535   0.09085   0.12157   0.14319
     Eigenvalues ---    0.16023   0.16193   0.16985   0.23434   0.25236
     Eigenvalues ---    0.31673   0.32134   0.34266   0.42639   0.44341
     Eigenvalues ---    0.45786   0.48655   0.51693   1.00427
 En-DIIS/RFO-DIIS IScMMF=        0 using points:     6    5
 RFO step:  Lambda=-4.10388569D-05.
 DidBck=F Rises=F RFO-DIIS coefs:    1.01617   -0.01617
 Iteration  1 RMS(Cart)=  0.00601191 RMS(Int)=  0.00004426
 Iteration  2 RMS(Cart)=  0.00004151 RMS(Int)=  0.00001233
 Iteration  3 RMS(Cart)=  0.00000000 RMS(Int)=  0.00001233
 Variable       Old X    -DE/DX   Delta X   Delta X   Delta X     New X
                                 (Linear)    (Quad)   (Total)
    R1        2.27744   0.00150   0.00005   0.00210   0.00216   2.27959
    R2        2.60669  -0.00280  -0.00015  -0.00633  -0.00647   2.60022
    R3        2.84899   0.00086  -0.00003   0.00199   0.00195   2.85094
    R4        1.87700   0.00085   0.00000   0.00183   0.00183   1.87883
    R5        2.10759   0.00000   0.00000  -0.00037  -0.00037   2.10722
    R6        2.12499  -0.00123  -0.00004  -0.00279  -0.00282   2.12216
    R7        2.81252   0.00125   0.00000   0.00358   0.00358   2.81610
    R8        1.92041   0.00022   0.00000   0.00051   0.00052   1.92093
    R9        1.92869   0.00037   0.00007   0.00136   0.00143   1.93013
    A1        2.10093   0.00012   0.00012   0.00209   0.00218   2.10311
    A2        2.27614  -0.00084  -0.00043  -0.00796  -0.00842   2.26772
    A3        1.90604   0.00071   0.00031   0.00572   0.00601   1.91204
    A4        1.96660   0.00028  -0.00003   0.00195   0.00193   1.96853
    A5        1.89211  -0.00003  -0.00003   0.00085   0.00082   1.89293
    A6        1.92556  -0.00110   0.00027  -0.00380  -0.00352   1.92203
    A7        1.91472   0.00161  -0.00010   0.00432   0.00422   1.91894
    A8        1.85132   0.00025   0.00007   0.00081   0.00088   1.85219
    A9        2.00474  -0.00065  -0.00009  -0.00241  -0.00250   2.00224
   A10        1.87409  -0.00020  -0.00009  -0.00016  -0.00024   1.87386
   A11        1.91683   0.00016  -0.00009   0.00140   0.00130   1.91813
   A12        1.92987   0.00095  -0.00013   0.00449   0.00436   1.93423
   A13        1.87101  -0.00037  -0.00013  -0.00169  -0.00183   1.86917
    D1        0.01172   0.00038  -0.00018   0.00800   0.00786   0.01959
    D2        3.14061  -0.00028  -0.00018  -0.00353  -0.00375   3.13686
    D3        1.61463  -0.00015  -0.00263  -0.00917  -0.01178   1.60285
    D4       -2.64832  -0.00048  -0.00242  -0.00979  -0.01220  -2.66052
    D5       -0.58711  -0.00040  -0.00242  -0.00964  -0.01205  -0.59916
    D6       -1.51256   0.00058  -0.00263   0.00378   0.00115  -1.51142
    D7        0.50767   0.00025  -0.00242   0.00316   0.00073   0.50841
    D8        2.56888   0.00033  -0.00242   0.00332   0.00088   2.56976
    D9        2.64941   0.00052  -0.00187  -0.00520  -0.00707   2.64233
   D10        0.58808   0.00030  -0.00157  -0.00672  -0.00829   0.57979
   D11        0.51328  -0.00022  -0.00168  -0.00794  -0.00962   0.50365
   D12       -1.54805  -0.00044  -0.00138  -0.00946  -0.01084  -1.55889
   D13       -1.54088  -0.00001  -0.00165  -0.00741  -0.00906  -1.54994
   D14        2.68099  -0.00023  -0.00135  -0.00893  -0.01029   2.67070
         Item               Value     Threshold  Converged?
 Maximum Force            0.002796     0.000450     NO 
 RMS     Force            0.000804     0.000300     NO 
 Maximum Displacement     0.019212     0.001800     NO 
 RMS     Displacement     0.006021     0.001200     NO 
 Predicted change in Energy=-4.187463D-05
 GradGradGradGradGradGradGradGradGradGradGradGradGradGradGradGradGradGrad

                          Input orientation:                          
 ---------------------------------------------------------------------
 Center     Atomic      Atomic             Coordinates (Angstroms)
 Number     Number       Type             X           Y           Z
 ---------------------------------------------------------------------
      1          6           0       -0.530128    0.140384    0.261420
      2          8           0       -0.762426    1.318587    0.375679
      3          8           0       -1.537070   -0.742506   -0.054630
      4          1           0       -2.415336   -0.294770   -0.183797
      5          6           0        0.763056   -0.614098    0.447082
      6          1           0        0.818835   -0.964235    1.504304
      7          1           0        0.764933   -1.539894   -0.188550
      8          7           0        1.910962    0.228885    0.008416
      9          1           0        2.745877   -0.025114    0.529662
     10          1           0        1.728813    1.216272    0.195778
 ---------------------------------------------------------------------
                    Distance matrix (angstroms):
                    1          2          3          4          5
     1  C    0.000000
     2  O    1.206309   0.000000
     3  O    1.375977   2.243511   0.000000
     4  H    1.985343   2.376562   0.994235   0.000000
     5  C    1.508654   2.463222   2.357707   3.256095   0.000000
     6  H    2.141179   2.997575   2.833677   3.709142   1.115091
     7  H    2.168638   3.289695   2.439873   3.415328   1.123001
     8  N    2.455762   2.910212   3.582806   4.362112   1.490214
     9  H    3.291133   3.759978   4.381745   5.217266   2.070097
    10  H    2.502930   2.499821   3.816478   4.427335   2.084728
                    6          7          8          9         10
     6  H    0.000000
     7  H    1.788867   0.000000
     8  N    2.203171   2.116781   0.000000
     9  H    2.354860   2.595097   1.016512   0.000000
    10  H    2.700909   2.945034   1.021379   1.639188   0.000000
 Stoichiometry    C2H5NO2
 Framework group  C1[X(C2H5NO2)]
 Deg. of freedom    24
 Full point group                 C1      NOp   1
 Largest Abelian subgroup         C1      NOp   1
 Largest concise Abelian subgroup C1      NOp   1
                         Standard orientation:                         
 ---------------------------------------------------------------------
 Center     Atomic      Atomic             Coordinates (Angstroms)
 Number     Number       Type             X           Y           Z
 ---------------------------------------------------------------------
      1          6           0       -0.524199    0.120413    0.058812
      2          8           0       -0.706689    1.312033    0.102615
      3          8           0       -1.576791   -0.739930   -0.153724
      4          1           0       -2.442529   -0.266510   -0.275679
      5          6           0        0.746757   -0.671901    0.240328
      6          1           0        0.836796   -0.953334    1.315556
      7          1           0        0.685276   -1.637017   -0.330550
      8          7           0        1.904655    0.093041   -0.302696
      9          1           0        2.752017   -0.159545    0.198777
     10          1           0        1.768342    1.097221   -0.175201
 ---------------------------------------------------------------------
 Rotational constants (GHZ):      9.8294896      3.8610204      2.9165559
 Standard basis: VSTO-6G (5D, 7F)
 There are    25 symmetry adapted cartesian basis functions of A   symmetry.
 There are    25 symmetry adapted basis functions of A   symmetry.
    25 basis functions,   150 primitive gaussians,    25 cartesian basis functions
    15 alpha electrons       15 beta electrons
       nuclear repulsion energy       124.8032777740 Hartrees.
 Integral buffers will be    262144 words long.
 Regular integral format.
 Two-electron integral symmetry is turned off.
 Do NDO integrals.
[...]
     9   1    -0.03   0.03  -0.03     0.00   0.00   0.00     0.00   0.03   0.05
    10   1    -0.03   0.03   0.03     0.00   0.00   0.00     0.00  -0.03   0.05
                     22                     23                     24
                      A                      A                      A
 Frequencies --   2720.3588              2792.8009              2829.8621
 Red. masses --      1.0483                 1.0874                 1.0413
 Frc consts  --      4.5710                 4.9972                 4.9131
 IR Inten    --     73.9128                98.7671                66.4188
  Atom  AN      X      Y      Z        X      Y      Z        X      Y      Z
     1   6    -0.01   0.01   0.00     0.00   0.00   0.00     0.00   0.00   0.00
     2   8     0.00   0.00   0.00     0.00   0.00   0.00     0.00   0.00   0.00
     3   8     0.00   0.00   0.00     0.00   0.00   0.00     0.00   0.00   0.00
     4   1    -0.01   0.01   0.00     0.00   0.00   0.00     0.00   0.00   0.00
     5   6     0.00   0.06   0.00     0.00   0.00   0.01     0.00  -0.01   0.00
     6   1    -0.01  -0.43   0.56     0.01   0.04  -0.04     0.00   0.02  -0.03
     7   1    -0.01  -0.42  -0.56    -0.01  -0.04  -0.04     0.00   0.02   0.03
     8   7     0.00   0.00   0.00     0.00   0.00   0.08    -0.01  -0.05   0.00
     9   1     0.00   0.02   0.04    -0.07  -0.42  -0.56     0.08   0.37   0.60
    10   1     0.00   0.02  -0.04     0.07   0.43  -0.55     0.08   0.38  -0.59

 -------------------
 - Thermochemistry -
 -------------------
 Temperature   298.150 Kelvin.  Pressure   1.00000 Atm.
 Atom     1 has atomic number  6 and mass  12.00000
 Atom     2 has atomic number  8 and mass  15.99491
 Atom     3 has atomic number  8 and mass  15.99491
 Atom     4 has atomic number  1 and mass   1.00783
 Atom     5 has atomic number  6 and mass  12.00000
 Atom     6 has atomic number  1 and mass   1.00783
 Atom     7 has atomic number  1 and mass   1.00783
 Atom     8 has atomic number  7 and mass  14.00307
 Atom     9 has atomic number  1 and mass   1.00783
 Atom    10 has atomic number  1 and mass   1.00783
 Molecular mass:    75.03203 amu.
 Principal axes and moments of inertia in atomic units:
                           1         2         3
     Eigenvalues --   178.02435 473.51573 630.56387
           X            0.99994   0.01074   0.00004
           Y           -0.01074   0.99994   0.00019
           Z           -0.00004  -0.00019   1.00000
 This molecule is an asymmetric top.
 Rotational symmetry number  1.
 Rotational temperatures (Kelvin)      0.48653     0.18292     0.13736
 Rotational constants (GHZ):          10.13761     3.81136     2.86211
 Zero-point vibrational energy     184875.3 (Joules/Mol)
                                   44.18625 (Kcal/Mol)
 Warning -- explicit consideration of   7 degrees of freedom as
           vibrations may cause significant error
 Vibrational temperatures:     62.76   314.91   326.15   592.66   703.04
          (Kelvin)            823.13   840.66  1301.98  1335.47  1485.09
                             1581.63  1591.80  1721.50  1776.86  1833.55
                             1880.59  1902.18  2316.13  2624.65  3659.19
                             3793.04  3913.98  4018.21  4071.54
 
 Zero-point correction=                           0.070415 (Hartree/Particle)
 Thermal correction to Energy=                    0.076276
 Thermal correction to Enthalpy=                  0.077220
 Thermal correction to Gibbs Free Energy=         0.040862
 Sum of electronic and zero-point Energies=             -0.077879
 Sum of electronic and thermal Energies=                -0.072018
 Sum of electronic and thermal Enthalpies=              -0.071073
 Sum of electronic and thermal Free Energies=           -0.107432
 
                     E (Thermal)             CV                S
                      KCal/Mol        Cal/Mol-Kelvin    Cal/Mol-Kelvin
 Total                   47.864             19.197             76.523
 Electronic               0.000              0.000              0.000
 Translational            0.889              2.981             38.862
 Rotational               0.889              2.981             25.478
 Vibrational             46.087             13.235             12.183
 Vibration     1          0.595              1.980              5.088
 Vibration     2          0.647              1.812              1.968
 Vibration     3          0.650              1.800              1.905
 Vibration     4          0.776              1.444              0.920
 Vibration     5          0.845              1.275              0.687
 Vibration     6          0.928              1.092              0.500
 Vibration     7          0.941              1.065              0.477
                       Q            Log10(Q)             Ln(Q)
 Total Bot       0.160245D-18        -18.795216        -43.277584
 Total V=0       0.392184D+14         13.593490         31.300167
 Vib (Bot)       0.760048D-31        -31.119159        -71.654512
 Vib (Bot)    1  0.474204D+01          0.675965          1.556468
 Vib (Bot)    2  0.904160D+00         -0.043755         -0.100749
 Vib (Bot)    3  0.870114D+00         -0.060424         -0.139131
 Vib (Bot)    4  0.428891D+00         -0.367653         -0.846553
 Vib (Bot)    5  0.339727D+00         -0.468870         -1.079614
 Vib (Bot)    6  0.268459D+00         -0.571122         -1.315058
 Vib (Bot)    7  0.259681D+00         -0.585561         -1.348303
 Vib (V=0)       0.186014D+02          1.269547          2.923239
 Vib (V=0)    1  0.526833D+01          0.721673          1.661713
 Vib (V=0)    2  0.153320D+01          0.185599          0.427358
 Vib (V=0)    3  0.150354D+01          0.177116          0.407824
 Vib (V=0)    4  0.115875D+01          0.063989          0.147339
 Vib (V=0)    5  0.110450D+01          0.043164          0.099388
 Vib (V=0)    6  0.106751D+01          0.028373          0.065331
 Vib (V=0)    7  0.106341D+01          0.026702          0.061483
 Electronic      0.100000D+01          0.000000          0.000000
 Translational   0.255461D+08          7.407325         17.055997
 Rotational      0.825311D+05          4.916618         11.320931
 ***** Axes restored to original set *****
 -------------------------------------------------------------------
 Center     Atomic                   Forces (Hartrees/Bohr)
 Number     Number              X              Y              Z
 -------------------------------------------------------------------
      1        6           0.000081728    0.000031518    0.000062389
      2        8          -0.000010863   -0.000001767   -0.000016194
      3        8          -0.000032586   -0.000075107   -0.000024001
      4        1          -0.000030965    0.000037434    0.000002810
      5        6          -0.000075728    0.000007128   -0.000012071
      6        1           0.000002386   -0.000007706   -0.000002389
      7        1           0.000006206   -0.000042945   -0.000024353
      8        7           0.000043115    0.000007053    0.000044659
      9        1           0.000009744    0.000017943    0.000001824
     10        1           0.000006961    0.000026449   -0.000032674
 -------------------------------------------------------------------
 Cartesian Forces:  Max     0.000081728 RMS     0.000034743
 FormGI is forming the generalized inverse of G from B-inverse, IUseBI=4.

 GradGradGradGradGradGradGradGradGradGradGradGradGradGradGradGradGradGrad
 Berny optimization.
 Internal  Forces:  Max     0.000078708 RMS     0.000025134
 Search for a local minimum.
 Step number   1 out of a maximum of    2
 All quantities printed in internal units (Hartrees-Bohrs-Radians)
 Second derivative matrix not updated -- analytic derivatives used.
 ITU=  0
     Eigenvalues ---    0.00055   0.00203   0.01569   0.03250   0.03513
     Eigenvalues ---    0.03736   0.04644   0.08012   0.10826   0.11731
     Eigenvalues ---    0.12393   0.15349   0.17408   0.18378   0.18495
     Eigenvalues ---    0.24951   0.25213   0.26870   0.28371   0.28843
     Eigenvalues ---    0.35472   0.45353   0.50354   0.92339
 Angle between quadratic step and forces=  83.56 degrees.
 Linear search not attempted -- first point.
 Iteration  1 RMS(Cart)=  0.00334354 RMS(Int)=  0.00000645
 Iteration  2 RMS(Cart)=  0.00000773 RMS(Int)=  0.00000002
 Iteration  3 RMS(Cart)=  0.00000000 RMS(Int)=  0.00000002
 Variable       Old X    -DE/DX   Delta X   Delta X   Delta X     New X
                                 (Linear)    (Quad)   (Total)
    R1        2.28174   0.00000   0.00000   0.00001   0.00001   2.28175
    R2        2.59442   0.00007   0.00000   0.00024   0.00024   2.59466
    R3        2.86531  -0.00001   0.00000  -0.00018  -0.00018   2.86513
    R4        1.88071   0.00005   0.00000   0.00026   0.00026   1.88097
    R5        2.11473   0.00000   0.00000   0.00006   0.00006   2.11479
    R6        2.11468   0.00005   0.00000   0.00011   0.00011   2.11479
    R7        2.78461   0.00008   0.00000   0.00020   0.00020   2.78481
    R8        1.92349   0.00001   0.00000   0.00007   0.00007   1.92356
    R9        1.92344   0.00004   0.00000   0.00012   0.00012   1.92356
    A1        2.10320  -0.00003   0.00000  -0.00023  -0.00023   2.10297
    A2        2.25999   0.00000   0.00000   0.00003   0.00003   2.26002
    A3        1.91999   0.00003   0.00000   0.00020   0.00020   1.92019
    A4        1.97236  -0.00003   0.00000  -0.00040  -0.00040   1.97196
    A5        1.90844   0.00000   0.00000  -0.00016  -0.00016   1.90828
    A6        1.90777   0.00002   0.00000   0.00051   0.00051   1.90828
    A7        1.99097  -0.00002   0.00000  -0.00006  -0.00006   1.99091
    A8        1.83047  -0.00001   0.00000  -0.00025  -0.00025   1.83023
    A9        1.90987   0.00000   0.00000  -0.00023  -0.00023   1.90963
   A10        1.90946   0.00000   0.00000   0.00018   0.00018   1.90963
   A11        1.93685   0.00002   0.00000   0.00004   0.00004   1.93689
   A12        1.93695   0.00000   0.00000  -0.00006  -0.00006   1.93689
   A13        1.86860  -0.00001   0.00000  -0.00011  -0.00011   1.86849
    D1        0.00079  -0.00001   0.00000  -0.00079  -0.00079   0.00000
    D2       -3.14120   0.00001   0.00000  -0.00039  -0.00039   3.14159
    D3        2.15038   0.00001   0.00000  -0.00610  -0.00610   2.14428
    D4       -2.13807   0.00000   0.00000  -0.00621  -0.00621  -2.14429
    D5        0.00564   0.00001   0.00000  -0.00564  -0.00564   0.00000
    D6       -0.99077  -0.00001   0.00000  -0.00654  -0.00654  -0.99731
    D7        1.00396  -0.00002   0.00000  -0.00665  -0.00665   0.99731
    D8       -3.13552  -0.00001   0.00000  -0.00608  -0.00608   3.14159
    D9        1.04033  -0.00001   0.00000  -0.00266  -0.00266   1.03767
   D10       -1.03515  -0.00001   0.00000  -0.00251  -0.00251  -1.03767
   D11       -1.10364   0.00000   0.00000  -0.00223  -0.00223  -1.10587
   D12        3.10406  -0.00001   0.00000  -0.00208  -0.00208   3.10198
   D13       -3.10006   0.00001   0.00000  -0.00191  -0.00191  -3.10197
   D14        1.10763   0.00000   0.00000  -0.00176  -0.00176   1.10587
         Item               Value     Threshold  Converged?
 Maximum Force            0.000079     0.000450     YES
 RMS     Force            0.000025     0.000300     YES
 Maximum Displacement     0.013277     0.001800     NO 
 RMS     Displacement     0.003343     0.001200     NO 
 Predicted change in Energy=-1.370302D-07
 GradGradGradGradGradGradGradGradGradGradGradGradGradGradGradGradGradGrad

 1|1|UNPC-DESKTOP-KC5UJLK|Freq|RPM6|ZDO|C2H5N1O2|23122|13-Mar-2022|0||#
 N Geom=AllCheck Guess=TCheck SCRF=Check GenChk RPM6/ZDO Freq||opt freq
 (GC)||0,1|C,-0.4758444959,0.1337951352,0.2679338414|O,-0.6200578998,1.
 3324935371,0.2835462915|O,-1.5665584467,-0.6988326758,0.2238332193|H,-
 2.4313333376,-0.2065257914,0.2070301375|C,0.8006518664,-0.6841727591,0
 .2907372094|H,0.7760099053,-1.3855010168,1.1624262908|H,0.8315843511,-
 1.3468681918,-0.6104449871|N,2.031528362,0.1240242409,0.3465668157|H,2
 .0461709619,0.7084342905,1.1798171552|H,2.0953649435,0.7466651512,-0.4
 560817837||Version=IA32W-G09RevD.01|State=1-A|HF=-0.1482938|RMSD=8.689
 e-010|RMSF=3.474e-005|ZeroPoint=0.0704153|Thermal=0.0762763|Dipole=-0.
 2946942,-0.2884785,-0.0115346|DipoleDeriv=1.4254804,0.456249,0.0304554
 ,0.4628763,2.0197684,0.0365838,0.0305616,0.0362243,0.5778211,-0.674396
 5,0.1257037,-0.0039001,-0.1230403,-1.3826961,-0.0182699,-0.0076043,-0.
 0115857,-0.4698745,-1.4773289,-0.6596719,-0.0371692,-0.0625321,-0.7822
 01,-0.0053252,-0.0270496,-0.022282,-0.5548561,0.5139576,0.0331895,0.00
 40907,-0.2234017,0.1594736,-0.010132,0.0000617,-0.0026745,0.3894211,0.
 3569642,-0.0882226,0.0263919,0.1894346,-0.4713039,0.0075956,0.032451,-
 0.0012479,-0.5308852,0.0814985,-0.0143689,0.0069441,-0.0203518,0.25764
 48,-0.0567872,0.0185132,-0.0613192,0.2645164,0.0836694,-0.0174809,-0.0
 19149,-0.0225436,0.2524739,0.0550782,-0.0310347,0.0601625,0.2671162,-0
 .8679762,0.12893,-0.0103881,-0.0146192,-0.4152947,0.0000615,-0.0132765
 ,0.0046842,-0.4408126,0.2730529,0.0127846,0.1279865,-0.0935361,0.17992
 44,-0.03223,0.0642536,0.0703708,0.2554733,0.285077,0.0228843,-0.125262
 3,-0.0922866,0.1822049,0.0234251,-0.0668759,-0.0723324,0.2420787|Polar
 =35.8897431,3.3094916,36.8860808,0.6986923,0.4644519,14.4044309|HyperP
 olar=-288.4557216,33.7247572,31.1160855,-44.5752702,-8.5659146,1.28986
 74,0.0326623,1.9559169,1.4091556,0.3864012|PG=C01 [X(C2H5N1O2)]|NImag=
 0||0.53405787,-0.09698460,0.95551068,0.00879657,0.01018711,0.16726398,
 -0.06746306,0.09019560,0.00116927,0.07658998,0.12114798,-0.73055390,-0
 .00763738,-0.07894164,0.87574193,0.00167611,-0.00851056,-0.05647590,0.
 00021992,0.01174902,0.02294006,-0.20261682,-0.08857535,-0.00596210,-0.
 00105199,-0.07081471,-0.00173830,0.41139026,-0.08767700,-0.13690244,-0
 .00399531,-0.04915151,-0.09310074,-0.00322553,0.07432144,0.29863105,-0
 .00597173,-0.00403510,-0.04147866,-0.00138744,-0.00383238,0.01974386,0
 .01206756,0.00641639,0.02853569,-0.06194307,0.00178084,-0.00179818,0.0
 0137247,0.00414415,0.00021754,-0.14946633,0.05790498,-0.00295059,0.213
 05651,-0.02407440,0.02715852,-0.00028501,0.00282554,-0.01021594,-0.000
 02279,0.08801461,-0.08074879,0.00144303,-0.06186834,0.06727396,-0.0022
 0107,0.00044579,0.00236381,0.00019774,0.00001673,-0.00394199,-0.002480
 01,0.00057916,-0.01348101,0.00477691,-0.00086669,0.01063932,-0.1259125
 1,0.06062804,-0.00040329,-0.00684494,0.02164409,-0.00041431,-0.0484059
 1,0.00073872,-0.00158544,-0.00268370,-0.00257335,-0.00022786,0.4564271
 5,0.05310566,-0.08813542,0.00129728,0.03343630,-0.04160547,-0.00008161
 ,-0.00160933,0.01364247,0.00004396,-0.00306133,-0.00337345,-0.00019093
 ,0.05990417,0.45545888,-0.00059065,0.00160428,-0.07472341,-0.00021737,
 -0.00044210,0.01975633,-0.00159145,0.00010561,0.00807613,-0.00024383,-
 0.00018647,0.00378509,0.00292297,0.00269553,0.40578760,-0.00601152,0.0
 2097865,-0.01924111,-0.00208914,0.00120697,0.00212301,-0.00225132,-0.0
 0062484,0.00069776,0.00003503,-0.00016386,0.00022209,-0.02937916,-0.00
 050991,-0.00200352,0.04954595,0.01962370,-0.01766688,0.01715390,0.0002
 4184,-0.00041647,-0.00120819,-0.00169507,-0.00076955,0.00004966,0.0002
 7822,-0.00033552,-0.00038284,-0.00517055,-0.09389737,0.07950069,0.0058
 2108,0.12944300,-0.00902310,0.01084638,-0.00113039,0.00108941,-0.00187
 675,-0.00060960,0.00106175,-0.00043984,-0.00069297,-0.00021474,0.00023
 206,0.00022398,0.00017615,0.08704034,-0.13962027,-0.00220617,-0.109633
 87,0.16518634,-0.00782351,0.02081670,0.01974280,-0.00187299,0.00114658
 ,-0.00216776,-0.00213129,-0.00061996,-0.00080161,0.00003299,-0.0001442
 2,-0.00024581,-0.02986896,0.00464953,0.00922028,0.00367128,-0.00039648
 ,0.00045346,0.04968494,0.02029841,-0.01649941,-0.01663798,0.00020630,-
 0.00053587,0.00124306,-0.00164458,-0.00079014,-0.00013968,0.00025048,-
 0.00033207,0.00038169,-0.00040124,-0.08674204,-0.07740690,-0.00070779,
 0.00622119,0.00536721,-0.00092459,0.11998551,0.00951838,-0.01028462,-0
 .00050190,-0.00116243,0.00197348,-0.00070076,-0.00122559,0.00040198,-0
 .00078765,0.00021622,-0.00026121,0.00022911,0.00680415,-0.08460596,-0.
 14621687,0.00125294,-0.00409109,-0.02387121,-0.00522032,0.10784281,0.1
 7446161,-0.05777246,0.00052017,-0.00196393,-0.00178260,-0.00092155,-0.
 00006763,-0.00954117,0.00451794,-0.00020698,0.00003560,-0.00286306,-0.
 00003316,-0.18278231,-0.09352181,-0.00530922,-0.01096719,-0.01454247,0
 .00953330,-0.00907618,-0.01289114,-0.01063416,0.33504291,-0.00631885,0
 .00157386,-0.00019799,0.00255333,0.00300601,0.00012479,0.00247505,0.00
 110337,0.00007692,0.00026067,0.00050560,0.00001237,-0.12233239,-0.1183
 5342,-0.00460469,-0.02240512,-0.02047084,0.00897060,-0.02087990,-0.019
 17738,-0.01110537,0.16237167,0.38729083,-0.00204030,-0.00004847,0.0035
 1326,-0.00001668,0.00002264,0.00037405,-0.00026321,0.00015030,0.000444
 14,0.00001062,-0.00007676,-0.00007365,-0.00604787,-0.00373219,-0.07782
 075,0.01979224,0.01879148,-0.00065174,-0.02121843,-0.02042953,-0.00385
 623,0.00094410,0.00382127,0.43157960,-0.00213265,-0.00464056,-0.001697
 31,0.00152897,0.00069763,0.00050447,0.00200217,0.00030088,0.00010938,-
 0.00021698,0.00041453,0.00005763,-0.01408471,-0.02531439,-0.03120409,0
 .00080729,-0.00057821,0.00005122,-0.00344132,-0.00360210,0.00053563,-0
 .03227392,0.00414862,0.02849533,0.04508240,0.00049645,0.00275249,0.000
 20414,-0.00068440,-0.00113928,-0.00040258,-0.00025957,-0.00052806,0.00
 005488,0.00015902,0.00002904,-0.00004150,-0.00555489,-0.01800802,-0.01
 585879,-0.00139595,-0.00134086,-0.00074414,-0.00222066,-0.00075032,-0.
 00042361,-0.01801320,-0.11318165,-0.10843221,0.02748448,0.11840075,-0.
 00235254,-0.00015874,0.00046917,0.00080749,-0.00045205,-0.00051672,0.0
 0102598,-0.00023341,-0.00015529,-0.00013635,0.00024546,0.00012829,-0.0
 0986095,-0.00709703,-0.00119361,0.00022320,-0.00019725,0.00093695,0.00
 053581,-0.00027901,0.00029549,0.00269649,-0.08403302,-0.18062305,0.004
 05517,0.10784974,0.21228057,-0.00238223,-0.00471994,0.00135726,0.00161
 324,0.00069096,-0.00035305,0.00207247,0.00028930,0.00002911,-0.0002225
 6,0.00043244,-0.00006648,-0.01646519,-0.02707880,0.02901689,-0.0033611
 8,-0.00358202,-0.00092131,0.00082507,-0.00058371,-0.00008480,-0.030882
 94,0.00012664,-0.01965581,0.00272897,-0.00001117,0.00300578,0.04607457
 ,0.00038209,0.00276280,-0.00008877,-0.00068132,-0.00118027,0.00033439,
 -0.00021249,-0.00053699,-0.00007767,0.00015144,0.00003854,0.00004623,-
 0.00688212,-0.01898674,0.01459285,-0.00219930,-0.00076673,0.00023802,-
 0.00142706,-0.00137949,0.00055359,-0.02465656,-0.12229633,0.10993348,0
 .00108913,0.01376600,-0.01564465,0.03443630,0.12857931,0.00218832,-0.0
 0004613,0.00070042,-0.00069991,0.00047884,-0.00056926,-0.00089460,0.00
 024067,-0.00020471,0.00012239,-0.00022163,0.00012731,0.00863645,0.0046
 3062,0.00216948,-0.00086045,0.00001754,0.00022894,-0.00029842,0.000058
 30,0.00094844,0.00504116,0.08693513,-0.17288572,-0.00090741,0.01779403
 ,-0.03162174,-0.01232761,-0.10988741,0.20110689||-0.00008173,-0.000031
 52,-0.00006239,0.00001086,0.00000177,0.00001619,0.00003259,0.00007511,
 0.00002400,0.00003096,-0.00003743,-0.00000281,0.00007573,-0.00000713,0
 .00001207,-0.00000239,0.00000771,0.00000239,-0.00000621,0.00004294,0.0
 0002435,-0.00004312,-0.00000705,-0.00004466,-0.00000974,-0.00001794,-0
 .00000182,-0.00000696,-0.00002645,0.00003267|||@


 ANYONE WHO IS NOT SHOCKED BY QUANTUM THEORY HAS
 NOT UNDERSTOOD IT. -- NIELS BOHR(1885-1962)
 Job cpu time:       0 days  0 hours  0 minutes  6.0 seconds.
 File lengths (MBytes):  RWF=      5 Int=      0 D2E=      0 Chk=      1 Scr=      1
 Normal termination of Gaussian 09 at Sun Mar 13 10:46:45 2022.
