 Entering Link 1 = C:\G09W\l1.exe PID=      2704.
  
 Copyright (c) 1988,1990,1992,1993,1995,1998,2003,2009,2013,
            Gaussian, Inc.  All Rights Reserved.
  
 This is part of the Gaussian(R) 09 program.  It is based on
 the Gaussian(R) 03 system (copyright 2003, Gaussian, Inc.),
 the Gaussian(R) 98 system (copyright 1998, Gaussian, Inc.),
 the Gaussian(R) 94 system (copyright 1995, Gaussian, Inc.),
 the Gaussian 92(TM) system (copyright 1992, Gaussian, Inc.),
 the Gaussian 90(TM) system (copyright 1990, Gaussian, Inc.),
 the Gaussian 88(TM) system (copyright 1988, Gaussian, Inc.),
 the Gaussian 86(TM) system (copyright 1986, Carnegie Mellon
 University), and the Gaussian 82(TM) system (copyright 1983,
 Carnegie Mellon University). Gaussian is a federally registered
 trademark of Gaussian, Inc.
  
 This software contains proprietary and confidential information,
 including trade secrets, belonging to Gaussian, Inc.
  
 This software is provided under written license and may be
 used, copied, transmitted, or stored only in accord with that
 written license.
  
 The following legend is applicable only to US Government
 contracts under FAR:
  
                    RESTRICTED RIGHTS LEGEND
  
 Use, reproduction and disclosure by the US Government is
 subject to restrictions as set forth in subparagraphs (a)
 and (c) of the Commercial Computer Software - Restricted
 Rights clause in FAR 52.227-19.
  
 Gaussian, Inc.
 340 Quinnipiac St., Bldg. 40, Wallingford CT 06492
  
  
 ---------------------------------------------------------------
 Warning -- This program may not be used in any manner that
 competes with the business of Gaussian, Inc. or will provide
 assistance to any competitor of Gaussian, Inc.  The licensee
 of this program is prohibited from giving any competitor of
 Gaussian, Inc. access to this program.  By using this program,
 the user acknowledges that Gaussian, Inc. is engaged in the
 business of creating and licensing software in the field of
 computational chemistry and represents and warrants to the
 licensee that it is not a competitor of Gaussian, Inc. and that
 it will not use this program in any manner prohibited above.
 ---------------------------------------------------------------
  

 Cite this work as:
 Gaussian 09, Revision D.01,
 M. J. Frisch, G. W. Trucks, H. B. Schlegel, G. E. Scuseria, 
 M. A. Robb, J. R. Cheeseman, G. Scalmani, V. Barone, B. Mennucci, 
 G. A. Petersson, H. Nakatsuji, M. Caricato, X. Li, H. P. Hratchian, 
 A. F. Izmaylov, J. Bloino, G. Zheng, J. L. Sonnenberg, M. Hada, 
 M. Ehara, K. Toyota, R. Fukuda, J. Hasegawa, M. Ishida, T. Nakajima, 
 Y. Honda, O. Kitao, H. Nakai, T. Vreven, J. A. Montgomery, Jr., 
 J. E. Peralta, F. Ogliaro, M. Bearpark, J. J. Heyd, E. Brothers, 
 K. N. Kudin, V. N. Staroverov, T. Keith, R. Kobayashi, J. Normand, 
 K. Raghavachari, A. Rendell, J. C. Burant, S. S. Iyengar, J. Tomasi, 
 M. Cossi, N. Rega, J. M. Millam, M. Klene, J. E. Knox, J. B. Cross, 
 V. Bakken, C. Adamo, J. Jaramillo, R. Gomperts, R. E. Stratmann, 
 O. Yazyev, A. J. Austin, R. Cammi, C. Pomelli, J. W. Ochterski, 
 R. L. Martin, K. Morokuma, V. G. Zakrzewski, G. A. Voth, 
 P. Salvador, J. J. Dannenberg, S. Dapprich, A. D. Daniels, 
 O. Farkas, J. B. Foresman, J. V. Ortiz, J. Cioslowski, 
 and D. J. Fox, Gaussian, Inc., Wallingford CT, 2013.
 
 ******************************************
 Gaussian 09:  IA32W-G09RevD.01 24-Apr-2013
                13-Mar-2022 
 ******************************************
 %chk=D:\mindmap\gaussian\calculate\opt_freq\gly\gly.chk
 %nprocshared=4
 Will use up to    4 processors via shared memory.
 %mem=1GB
 --------------
 # opt freq pm6
 --------------
 1/14=-1,18=20,19=15,26=1,38=1/1,3;
 2/9=110,12=2,17=6,18=5,40=1/2;
 3/5=2,16=1,25=1,41=3900000,71=1/1,2,3;
 4/35=1/1;
 5/5=2,35=1,38=5/2;
 6/7=2,8=2,9=2,10=2,28=1/1;
 7//1,2,3,16;
 1/14=-1,18=20,19=15,26=1/3(2);
 2/9=110/2;
 99//99;
 2/9=110/2;
 3/5=2,16=1,25=1,41=3900000,71=1,135=20/1,2,3;
 4/5=5,16=3,35=1/1;
 5/5=2,35=1,38=5/2;
 7//1,2,3,16;
 1/14=-1,18=20,19=15,26=1/3(-5);
 2/9=110/2;
 6/7=2,8=2,9=2,10=2,19=2,28=1/1;
 99/9=1/99;
 ------------
 opt freq(GC)
 ------------
 Symbolic Z-matrix:
 Charge =  0 Multiplicity = 1
 C                     0.92919  -0.8582    1.79523 
 O                     2.09754  -1.09355   1.97912 
 O                    -0.02457  -1.81429   2.05323 
 H                     0.36004  -2.6547    2.42254 
 C                     0.26177   0.37914   1.23881 
 H                    -0.41384   0.82904   2.01153 
 N                     1.31908   1.37203   0.9117 
 H                     1.95353   0.98815   0.21714 
 H                     1.86809   1.59892   1.74028 
 C                    -0.63428  -0.04102   0.05891 
 H                    -0.03503  -0.50485  -0.69652 
 O                    -1.27795   1.11397  -0.48569 
 H                    -1.90773   0.84292  -1.15763 
 C                    -1.69959  -1.03743   0.55274 
 C                    -3.05449  -0.73004   0.42533 
 C                    -1.30999  -2.24725   1.12729 
 C                    -4.01949  -1.63202   0.87301 
 H                    -3.3613    0.22418  -0.02697 
 C                    -2.27517  -3.15005   1.57425 
 H                    -0.24216  -2.48976   1.22762 
 C                    -3.62975  -2.84259   1.44734 
 H                    -5.08744  -1.38953   0.77319 
 H                    -1.96769  -4.10404   2.02684 
 H                    -4.3908   -3.55364   1.80019 
 

 GradGradGradGradGradGradGradGradGradGradGradGradGradGradGradGradGradGrad
 Berny optimization.
 Initialization pass.
                           ----------------------------
                           !    Initial Parameters    !
                           ! (Angstroms and Degrees)  !
 --------------------------                            --------------------------
 ! Name  Definition              Value          Derivative Info.                !
 --------------------------------------------------------------------------------
 ! R1    R(1,2)                  1.2059         estimate D2E/DX2                !
 ! R2    R(1,3)                  1.3749         estimate D2E/DX2                !
 ! R3    R(1,5)                  1.512          estimate D2E/DX2                !
 ! R4    R(3,4)                  0.9953         estimate D2E/DX2                !
 ! R5    R(3,16)                 1.6423         estimate D2E/DX2                !
 ! R6    R(3,20)                 1.0887         estimate D2E/DX2                !
 ! R7    R(5,6)                  1.1207         estimate D2E/DX2                !
 ! R8    R(5,7)                  1.4869         estimate D2E/DX2                !
 ! R9    R(5,10)                 1.54           estimate D2E/DX2                !
 ! R10   R(7,8)                  1.016          estimate D2E/DX2                !
 ! R11   R(7,9)                  1.0195         estimate D2E/DX2                !
 ! R12   R(10,11)                1.07           estimate D2E/DX2                !
 ! R13   R(10,12)                1.43           estimate D2E/DX2                !
 ! R14   R(10,14)                1.54           estimate D2E/DX2                !
 ! R15   R(12,13)                0.96           estimate D2E/DX2                !
 ! R16   R(14,15)                1.3952         estimate D2E/DX2                !
 ! R17   R(14,16)                1.3948         estimate D2E/DX2                !
 ! R18   R(15,17)                1.3947         estimate D2E/DX2                !
 ! R19   R(15,18)                1.0997         estimate D2E/DX2                !
 ! R20   R(16,19)                1.3951         estimate D2E/DX2                !
 ! R21   R(16,20)                1.0996         estimate D2E/DX2                !
 ! R22   R(17,21)                1.3954         estimate D2E/DX2                !
 ! R23   R(17,22)                1.0997         estimate D2E/DX2                !
 ! R24   R(19,21)                1.3948         estimate D2E/DX2                !
 ! R25   R(19,23)                1.0998         estimate D2E/DX2                !
 ! R26   R(21,24)                1.0997         estimate D2E/DX2                !
 ! A1    A(2,1,3)              120.5141         estimate D2E/DX2                !
 ! A2    A(2,1,5)              130.0537         estimate D2E/DX2                !
 ! A3    A(3,1,5)              109.3857         estimate D2E/DX2                !
 ! A4    A(1,3,4)              112.8764         estimate D2E/DX2                !
 ! A5    A(1,3,16)             128.3514         estimate D2E/DX2                !
 ! A6    A(1,3,20)             115.3277         estimate D2E/DX2                !
 ! A7    A(4,3,16)             106.802          estimate D2E/DX2                !
 ! A8    A(4,3,20)              80.4878         estimate D2E/DX2                !
 ! A9    A(1,5,6)              109.9319         estimate D2E/DX2                !
 ! A10   A(1,5,7)              108.2731         estimate D2E/DX2                !
 ! A11   A(1,5,10)             108.393          estimate D2E/DX2                !
 ! A12   A(6,5,7)              108.1979         estimate D2E/DX2                !
 ! A13   A(6,5,10)             106.6805         estimate D2E/DX2                !
 ! A14   A(7,5,10)             115.3014         estimate D2E/DX2                !
 ! A15   A(5,7,8)              110.0073         estimate D2E/DX2                !
 ! A16   A(5,7,9)              110.6547         estimate D2E/DX2                !
 ! A17   A(8,7,9)              107.6614         estimate D2E/DX2                !
 ! A18   A(5,10,11)            109.4712         estimate D2E/DX2                !
 ! A19   A(5,10,12)            109.4712         estimate D2E/DX2                !
 ! A20   A(5,10,14)            109.4712         estimate D2E/DX2                !
 ! A21   A(11,10,12)           109.4712         estimate D2E/DX2                !
 ! A22   A(11,10,14)           109.4712         estimate D2E/DX2                !
 ! A23   A(12,10,14)           109.4713         estimate D2E/DX2                !
 ! A24   A(10,12,13)           109.5            estimate D2E/DX2                !
 ! A25   A(10,14,15)           119.9972         estimate D2E/DX2                !
 ! A26   A(10,14,16)           120.0043         estimate D2E/DX2                !
 ! A27   A(15,14,16)           119.9985         estimate D2E/DX2                !
 ! A28   A(14,15,17)           120.0086         estimate D2E/DX2                !
 ! A29   A(14,15,18)           119.9808         estimate D2E/DX2                !
 ! A30   A(17,15,18)           120.0106         estimate D2E/DX2                !
 ! A31   A(3,16,14)            102.8385         estimate D2E/DX2                !
 ! A32   A(3,16,19)            122.1034         estimate D2E/DX2                !
 ! A33   A(14,16,19)           120.0            estimate D2E/DX2                !
 ! A34   A(14,16,20)           120.008          estimate D2E/DX2                !
 ! A35   A(19,16,20)           119.992          estimate D2E/DX2                !
 ! A36   A(15,17,21)           119.9942         estimate D2E/DX2                !
 ! A37   A(15,17,22)           120.0128         estimate D2E/DX2                !
 ! A38   A(21,17,22)           119.993          estimate D2E/DX2                !
 ! A39   A(16,19,21)           120.0047         estimate D2E/DX2                !
 ! A40   A(16,19,23)           119.984          estimate D2E/DX2                !
 ! A41   A(21,19,23)           120.0113         estimate D2E/DX2                !
 ! A42   A(17,21,19)           119.994          estimate D2E/DX2                !
 ! A43   A(17,21,24)           119.9811         estimate D2E/DX2                !
 ! A44   A(19,21,24)           120.0249         estimate D2E/DX2                !
 ! D1    D(2,1,3,4)              2.208          estimate D2E/DX2                !
 ! D2    D(2,1,3,16)          -135.0069         estimate D2E/DX2                !
 ! D3    D(2,1,3,20)           -87.864          estimate D2E/DX2                !
 ! D4    D(5,1,3,4)            179.9668         estimate D2E/DX2                !
 ! D5    D(5,1,3,16)            42.752          estimate D2E/DX2                !
 ! D6    D(5,1,3,20)            89.8949         estimate D2E/DX2                !
 ! D7    D(2,1,5,6)           -118.007          estimate D2E/DX2                !
 ! D8    D(2,1,5,7)              0.0            estimate D2E/DX2                !
 ! D9    D(2,1,5,10)           125.7396         estimate D2E/DX2                !
 ! D10   D(3,1,5,6)             64.5156         estimate D2E/DX2                !
 ! D11   D(3,1,5,7)           -177.4775         estimate D2E/DX2                !
 ! D12   D(3,1,5,10)           -51.7378         estimate D2E/DX2                !
 ! D13   D(1,3,16,14)          -35.231          estimate D2E/DX2                !
 ! D14   D(1,3,16,19)         -173.6806         estimate D2E/DX2                !
 ! D15   D(4,3,16,14)         -174.4074         estimate D2E/DX2                !
 ! D16   D(4,3,16,19)           47.1431         estimate D2E/DX2                !
 ! D17   D(1,5,7,8)             60.4135         estimate D2E/DX2                !
 ! D18   D(1,5,7,9)            -58.4232         estimate D2E/DX2                !
 ! D19   D(6,5,7,8)            179.5216         estimate D2E/DX2                !
 ! D20   D(6,5,7,9)             60.6848         estimate D2E/DX2                !
 ! D21   D(10,5,7,8)           -61.1633         estimate D2E/DX2                !
 ! D22   D(10,5,7,9)           180.0            estimate D2E/DX2                !
 ! D23   D(1,5,10,11)          -60.0            estimate D2E/DX2                !
 ! D24   D(1,5,10,12)          180.0            estimate D2E/DX2                !
 ! D25   D(1,5,10,14)           60.0            estimate D2E/DX2                !
 ! D26   D(6,5,10,11)         -178.3382         estimate D2E/DX2                !
 ! D27   D(6,5,10,12)           61.6618         estimate D2E/DX2                !
 ! D28   D(6,5,10,14)          -58.3382         estimate D2E/DX2                !
 ! D29   D(7,5,10,11)           61.5121         estimate D2E/DX2                !
 ! D30   D(7,5,10,12)          -58.4879         estimate D2E/DX2                !
 ! D31   D(7,5,10,14)         -178.4879         estimate D2E/DX2                !
 ! D32   D(5,10,12,13)        -173.9257         estimate D2E/DX2                !
 ! D33   D(11,10,12,13)         66.0743         estimate D2E/DX2                !
 ! D34   D(14,10,12,13)        -53.9257         estimate D2E/DX2                !
 ! D35   D(5,10,14,15)         120.0            estimate D2E/DX2                !
 ! D36   D(5,10,14,16)         -60.0053         estimate D2E/DX2                !
 ! D37   D(11,10,14,15)       -120.0            estimate D2E/DX2                !
 ! D38   D(11,10,14,16)         59.9947         estimate D2E/DX2                !
 ! D39   D(12,10,14,15)          0.0            estimate D2E/DX2                !
 ! D40   D(12,10,14,16)        179.9947         estimate D2E/DX2                !
 ! D41   D(10,14,15,17)       -179.9729         estimate D2E/DX2                !
 ! D42   D(10,14,15,18)         -0.052          estimate D2E/DX2                !
 ! D43   D(16,14,15,17)          0.0323         estimate D2E/DX2                !
 ! D44   D(16,14,15,18)        179.9532         estimate D2E/DX2                !
 ! D45   D(10,14,16,3)          40.4697         estimate D2E/DX2                !
 ! D46   D(10,14,16,19)       -179.9798         estimate D2E/DX2                !
 ! D47   D(10,14,16,20)         -0.0055         estimate D2E/DX2                !
 ! D48   D(15,14,16,3)        -139.5356         estimate D2E/DX2                !
 ! D49   D(15,14,16,19)          0.0149         estimate D2E/DX2                !
 ! D50   D(15,14,16,20)        179.9892         estimate D2E/DX2                !
 ! D51   D(14,15,17,21)         -0.0568         estimate D2E/DX2                !
 ! D52   D(14,15,17,22)        179.9619         estimate D2E/DX2                !
 ! D53   D(18,15,17,21)       -179.9777         estimate D2E/DX2                !
 ! D54   D(18,15,17,22)          0.041          estimate D2E/DX2                !
 ! D55   D(3,16,19,21)         131.6534         estimate D2E/DX2                !
 ! D56   D(3,16,19,23)         -48.334          estimate D2E/DX2                !
 ! D57   D(14,16,19,21)         -0.0376         estimate D2E/DX2                !
 ! D58   D(14,16,19,23)        179.975          estimate D2E/DX2                !
 ! D59   D(20,16,19,21)        179.9881         estimate D2E/DX2                !
 ! D60   D(20,16,19,23)          0.0007         estimate D2E/DX2                !
 ! D61   D(15,17,21,19)          0.0341         estimate D2E/DX2                !
 ! D62   D(15,17,21,24)       -179.9964         estimate D2E/DX2                !
 ! D63   D(22,17,21,19)       -179.9846         estimate D2E/DX2                !
 ! D64   D(22,17,21,24)         -0.0151         estimate D2E/DX2                !
 ! D65   D(16,19,21,17)          0.0131         estimate D2E/DX2                !
 ! D66   D(16,19,21,24)       -179.9563         estimate D2E/DX2                !
 ! D67   D(23,19,21,17)       -179.9995         estimate D2E/DX2                !
 ! D68   D(23,19,21,24)          0.031          estimate D2E/DX2                !
 --------------------------------------------------------------------------------
 Trust Radius=3.00D-01 FncErr=1.00D-07 GrdErr=1.00D-07
 Number of steps in this run=    144 maximum allowed number of steps=    144.
 GradGradGradGradGradGradGradGradGradGradGradGradGradGradGradGradGradGrad

                          Input orientation:                          
 ---------------------------------------------------------------------
 Center     Atomic      Atomic             Coordinates (Angstroms)
 Number     Number       Type             X           Y           Z
 ---------------------------------------------------------------------
      1          6           0        0.929188   -0.858195    1.795234
      2          8           0        2.097540   -1.093551    1.979123
      3          8           0       -0.024571   -1.814294    2.053227
      4          1           0        0.360041   -2.654704    2.422543
      5          6           0        0.261767    0.379137    1.238812
      6          1           0       -0.413842    0.829042    2.011525
      7          7           0        1.319077    1.372027    0.911696
      8          1           0        1.953526    0.988150    0.217141
      9          1           0        1.868093    1.598915    1.740281
     10          6           0       -0.634276   -0.041016    0.058906
     11          1           0       -0.035035   -0.504849   -0.696521
     12          8           0       -1.277953    1.113970   -0.485693
     13          1           0       -1.907734    0.842916   -1.157634
     14          6           0       -1.699588   -1.037429    0.552741
     15          6           0       -3.054486   -0.730038    0.425333
     16          6           0       -1.309986   -2.247245    1.127286
     17          6           0       -4.019487   -1.632025    0.873011
     18          1           0       -3.361305    0.224177   -0.026971
     19          6           0       -2.275169   -3.150047    1.574254
     20          1           0       -0.242160   -2.489755    1.227618
     21          6           0       -3.629754   -2.842591    1.447341
     22          1           0       -5.087442   -1.389531    0.773193
     23          1           0       -1.967694   -4.104037    2.026842
     24          1           0       -4.390803   -3.553643    1.800194
 ---------------------------------------------------------------------
                    Distance matrix (angstroms):
                    1          2          3          4          5
     1  C    0.000000
     2  O    1.205925   0.000000
     3  O    1.374897   2.242391   0.000000
     4  H    1.986174   2.377546   0.995294   0.000000
     5  C    1.511968   2.467171   2.357202   3.258077   0.000000
     6  H    2.167321   3.162982   2.672171   3.592258   1.120691
     7  N    2.430339   2.797228   3.641583   4.406470   1.486856
     8  H    2.636028   2.731081   3.890729   4.546799   2.068032
     9  H    2.630961   2.712760   3.915368   4.564316   2.078368
    10  C    2.475286   3.501126   2.737439   3.661531   1.540000
    11  H    2.695074   3.471818   3.045632   3.808743   2.148263
    12  O    3.736781   4.726777   4.073304   5.034259   2.425826
    13  H    4.434111   5.443471   4.573477   5.494890   3.265697
    14  C    2.913139   4.056587   2.379215   3.217734   2.514809
    15  C    4.214584   5.393495   3.606389   4.399112   3.590202
    16  C    2.718366   3.697009   1.642287   2.152372   3.062797
    17  C    5.093004   6.239508   4.169590   4.756804   4.744229
    18  H    4.785425   5.963205   4.429038   5.304384   3.840946
    19  C    3.945798   4.849091   2.660610   2.812346   4.359324
    20  H    2.087159   2.826366   1.088680   1.348221   2.912835
    21  C    4.984256   6.011974   3.797610   4.111543   5.056377
    22  H    6.125906   7.291492   5.239426   5.830617   5.653232
    23  H    4.356726   5.058798   3.003223   2.770469   5.068564
    24  H    5.963872   6.941374   4.706734   4.875031   6.117869
                    6          7          8          9         10
     6  H    0.000000
     7  N    2.123079   0.000000
     8  H    2.974821   1.016019   0.000000
     9  H    2.423531   1.019534   1.643256   0.000000
    10  C    2.149027   2.557251   2.789434   3.431945   0.000000
    11  H    3.042412   2.818270   2.649188   3.739749   1.070000
    12  O    2.657813   2.960381   3.309420   3.884293   1.430000
    13  H    3.503638   3.869677   4.101271   4.819369   1.970533
    14  C    2.695350   3.879004   4.190566   4.592266   1.540000
    15  C    3.452498   4.876811   5.298651   5.602223   2.542919
    16  C    3.323928   4.478570   4.684726   5.026818   2.542728
    17  C    4.511512   6.125854   6.555331   6.771611   3.828019
    18  H    3.634401   4.909647   5.375004   5.688558   2.741238
    19  C    4.414623   5.814357   6.070280   6.304509   3.828169
    20  H    3.414440   4.177396   4.235319   4.629602   2.741526
    21  C    4.913378   6.522335   6.881932   7.073833   4.330065
    22  H    5.319594   6.977742   7.452369   7.631877   4.707376
    23  H    5.172037   6.483340   6.676927   6.878884   4.707326
    24  H    5.921893   7.593049   7.961436   8.107172   5.429745
                   11         12         13         14         15
    11  H    0.000000
    12  O    2.051796   0.000000
    13  H    2.352891   0.960000   0.000000
    14  C    2.148263   2.425827   2.550373   0.000000
    15  C    3.228987   2.717794   2.508985   1.395160   0.000000
    16  C    2.826255   3.728336   3.889377   1.394829   2.416183
    17  C    4.428297   4.111274   3.835146   2.416205   1.394712
    18  H    3.470425   2.311388   1.942705   2.165414   1.099655
    19  C    4.143874   4.839386   4.852007   2.416183   2.789946
    20  H    2.772195   4.122515   4.423829   2.165365   3.413128
    21  C    4.794079   4.992190   4.830549   2.790065   2.416260
    22  H    5.335686   4.729114   4.338485   3.413229   2.165375
    23  H    4.909790   5.832338   5.883606   3.413055   3.889707
    24  H    5.873794   6.058195   5.851846   3.889745   3.413024
                   16         17         18         19         20
    16  C    0.000000
    17  C    2.790080   0.000000
    18  H    3.412938   2.165330   0.000000
    19  C    1.395138   2.416356   3.889601   0.000000
    20  H    1.099604   3.889684   4.320704   2.165471   0.000000
    21  C    2.416236   1.395427   3.413316   1.394825   3.412999
    22  H    3.889760   1.099680   2.494768   3.413209   4.989364
    23  H    2.165516   3.413506   4.989362   1.099761   2.494420
    24  H    3.413344   2.165678   4.320917   2.165606   4.320988
                   21         22         23         24
    21  C    0.000000
    22  H    2.165806   0.000000
    23  H    2.165528   4.321228   0.000000
    24  H    1.099680   2.494678   2.495147   0.000000
 Stoichiometry    C9H11NO3
 Framework group  C1[X(C9H11NO3)]
 Deg. of freedom    66
 Full point group                 C1      NOp   1
 Largest Abelian subgroup         C1      NOp   1
 Largest concise Abelian subgroup C1      NOp   1
                         Standard orientation:                         
 ---------------------------------------------------------------------
 Center     Atomic      Atomic             Coordinates (Angstroms)
 Number     Number       Type             X           Y           Z
 ---------------------------------------------------------------------
      1          6           0       -1.697266   -1.080467   -0.147297
      2          8           0       -2.621743   -1.803402    0.130122
      3          8           0       -0.413677   -1.571733   -0.184662
      4          1           0       -0.367696   -2.548542    0.000647
      5          6           0       -1.675413    0.403243   -0.437424
      6          1           0       -1.314958    0.582751   -1.483271
      7          7           0       -3.065557    0.919741   -0.330315
      8          1           0       -3.423179    0.763382    0.607742
      9          1           0       -3.681174    0.433051   -0.981160
     10          6           0       -0.652327    1.067205    0.502815
     11          1           0       -0.939417    0.897161    1.519459
     12          8           0       -0.612952    2.473676    0.247497
     13          1           0        0.089995    2.873692    0.764654
     14          6           0        0.741552    0.461240    0.254806
     15          6           0        1.794835    1.279169   -0.155141
     16          6           0        0.951087   -0.905255    0.440105
     17          6           0        3.057170    0.730529   -0.380367
     18          1           0        1.629128    2.356319   -0.301881
     19          6           0        2.213988   -1.454054    0.215805
     20          1           0        0.121090   -1.550027    0.763376
     21          6           0        3.266950   -0.636462   -0.194503
     22          1           0        3.887274    1.375061   -0.704099
     23          1           0        2.379002   -2.531439    0.362383
     24          1           0        4.262357   -1.068809   -0.372090
 ---------------------------------------------------------------------
 Rotational constants (GHZ):      1.4166477      0.6546239      0.4667316
 Standard basis: VSTO-6G (5D, 7F)
 There are    63 symmetry adapted cartesian basis functions of A   symmetry.
 There are    63 symmetry adapted basis functions of A   symmetry.
    63 basis functions,   378 primitive gaussians,    63 cartesian basis functions
    35 alpha electrons       35 beta electrons
       nuclear repulsion energy       477.0643409093 Hartrees.
 Integral buffers will be    262144 words long.
 Regular integral format.
 Two-electron integral symmetry is turned off.
 Do NDO integrals.
 One-electron integrals computed using PRISM.
 NBasis=    63 RedAO= F EigKep=  0.00D+00  NBF=    63
 NBsUse=    63 1.00D-04 EigRej=  0.00D+00 NBFU=    63
 Simple Huckel Guess.
 Overlap will be assumed to be unity.
 Keep J ints in memory in canonical form, NReq=912005.
 Requested convergence on RMS density matrix=1.00D-08 within 128 cycles.
 Requested convergence on MAX density matrix=1.00D-06.
 Requested convergence on             energy=1.00D-06.
 No special actions if energy rises.
 SCF Done:  E(RPM6) =  0.247240145376E-01 A.U. after   20 cycles
            NFock= 19  Conv=0.38D-08     -V/T= 1.0006

 **********************************************************************

            Population analysis using the SCF density.

 **********************************************************************

 Orbital symmetries:
       Occupied  (A) (A) (A) (A) (A) (A) (A) (A) (A) (A) (A) (A)
                 (A) (A) (A) (A) (A) (A) (A) (A) (A) (A) (A) (A)
                 (A) (A) (A) (A) (A) (A) (A) (A) (A) (A) (A)
       Virtual   (A) (A) (A) (A) (A) (A) (A) (A) (A) (A) (A) (A)
                 (A) (A) (A) (A) (A) (A) (A) (A) (A) (A) (A) (A)
                 (A) (A) (A) (A)
 The electronic state is 1-A.
 Alpha  occ. eigenvalues --   -1.27604  -1.19835  -1.15868  -1.12135  -1.09721
 Alpha  occ. eigenvalues --   -1.01686  -0.98712  -0.94657  -0.86934  -0.83593
 Alpha  occ. eigenvalues --   -0.80007  -0.74551  -0.71544  -0.68826  -0.66030
 Alpha  occ. eigenvalues --   -0.65338  -0.63079  -0.60784  -0.58483  -0.57000
 Alpha  occ. eigenvalues --   -0.56055  -0.54987  -0.53961  -0.53015  -0.50240
 Alpha  occ. eigenvalues --   -0.48378  -0.47732  -0.46137  -0.44785  -0.44047
 Alpha  occ. eigenvalues --   -0.39935  -0.37566  -0.36795  -0.36044  -0.32446
 Alpha virt. eigenvalues --   -0.00983  -0.00250   0.00327   0.05664   0.07196
 Alpha virt. eigenvalues --    0.08982   0.09684   0.10525   0.11268   0.12128
 Alpha virt. eigenvalues --    0.12823   0.15107   0.15664   0.16321   0.17259
 Alpha virt. eigenvalues --    0.17829   0.18361   0.18577   0.19105   0.19280
 Alpha virt. eigenvalues --    0.19909   0.20165   0.20747   0.21111   0.21615
 Alpha virt. eigenvalues --    0.21803   0.22514   0.24449
          Condensed to atoms (all electrons):
               1          2          3          4          5          6
     1  C    3.575022   0.000000   0.000000   0.000000   0.000000   0.000000
     2  O    0.000000   6.500766   0.000000   0.000000   0.000000   0.000000
     3  O    0.000000   0.000000   6.339818   0.000000   0.000000   0.000000
     4  H    0.000000   0.000000   0.000000   0.701617   0.000000   0.000000
     5  C    0.000000   0.000000   0.000000   0.000000   4.103735   0.000000
     6  H    0.000000   0.000000   0.000000   0.000000   0.000000   0.800280
     7  N    0.000000   0.000000   0.000000   0.000000   0.000000   0.000000
     8  H    0.000000   0.000000   0.000000   0.000000   0.000000   0.000000
     9  H    0.000000   0.000000   0.000000   0.000000   0.000000   0.000000
    10  C    0.000000   0.000000   0.000000   0.000000   0.000000   0.000000
    11  H    0.000000   0.000000   0.000000   0.000000   0.000000   0.000000
    12  O    0.000000   0.000000   0.000000   0.000000   0.000000   0.000000
    13  H    0.000000   0.000000   0.000000   0.000000   0.000000   0.000000
    14  C    0.000000   0.000000   0.000000   0.000000   0.000000   0.000000
    15  C    0.000000   0.000000   0.000000   0.000000   0.000000   0.000000
    16  C    0.000000   0.000000   0.000000   0.000000   0.000000   0.000000
    17  C    0.000000   0.000000   0.000000   0.000000   0.000000   0.000000
    18  H    0.000000   0.000000   0.000000   0.000000   0.000000   0.000000
    19  C    0.000000   0.000000   0.000000   0.000000   0.000000   0.000000
    20  H    0.000000   0.000000   0.000000   0.000000   0.000000   0.000000
    21  C    0.000000   0.000000   0.000000   0.000000   0.000000   0.000000
    22  H    0.000000   0.000000   0.000000   0.000000   0.000000   0.000000
    23  H    0.000000   0.000000   0.000000   0.000000   0.000000   0.000000
    24  H    0.000000   0.000000   0.000000   0.000000   0.000000   0.000000
               7          8          9         10         11         12
     1  C    0.000000   0.000000   0.000000   0.000000   0.000000   0.000000
     2  O    0.000000   0.000000   0.000000   0.000000   0.000000   0.000000
     3  O    0.000000   0.000000   0.000000   0.000000   0.000000   0.000000
     4  H    0.000000   0.000000   0.000000   0.000000   0.000000   0.000000
     5  C    0.000000   0.000000   0.000000   0.000000   0.000000   0.000000
     6  H    0.000000   0.000000   0.000000   0.000000   0.000000   0.000000
     7  N    5.477786   0.000000   0.000000   0.000000   0.000000   0.000000
     8  H    0.000000   0.782172   0.000000   0.000000   0.000000   0.000000
     9  H    0.000000   0.000000   0.773741   0.000000   0.000000   0.000000
    10  C    0.000000   0.000000   0.000000   3.833200   0.000000   0.000000
    11  H    0.000000   0.000000   0.000000   0.000000   0.884744   0.000000
    12  O    0.000000   0.000000   0.000000   0.000000   0.000000   6.522331
    13  H    0.000000   0.000000   0.000000   0.000000   0.000000   0.000000
    14  C    0.000000   0.000000   0.000000   0.000000   0.000000   0.000000
    15  C    0.000000   0.000000   0.000000   0.000000   0.000000   0.000000
    16  C    0.000000   0.000000   0.000000   0.000000   0.000000   0.000000
    17  C    0.000000   0.000000   0.000000   0.000000   0.000000   0.000000
    18  H    0.000000   0.000000   0.000000   0.000000   0.000000   0.000000
    19  C    0.000000   0.000000   0.000000   0.000000   0.000000   0.000000
    20  H    0.000000   0.000000   0.000000   0.000000   0.000000   0.000000
    21  C    0.000000   0.000000   0.000000   0.000000   0.000000   0.000000
    22  H    0.000000   0.000000   0.000000   0.000000   0.000000   0.000000
    23  H    0.000000   0.000000   0.000000   0.000000   0.000000   0.000000
    24  H    0.000000   0.000000   0.000000   0.000000   0.000000   0.000000
              13         14         15         16         17         18
     1  C    0.000000   0.000000   0.000000   0.000000   0.000000   0.000000
     2  O    0.000000   0.000000   0.000000   0.000000   0.000000   0.000000
     3  O    0.000000   0.000000   0.000000   0.000000   0.000000   0.000000
     4  H    0.000000   0.000000   0.000000   0.000000   0.000000   0.000000
     5  C    0.000000   0.000000   0.000000   0.000000   0.000000   0.000000
     6  H    0.000000   0.000000   0.000000   0.000000   0.000000   0.000000
     7  N    0.000000   0.000000   0.000000   0.000000   0.000000   0.000000
     8  H    0.000000   0.000000   0.000000   0.000000   0.000000   0.000000
     9  H    0.000000   0.000000   0.000000   0.000000   0.000000   0.000000
    10  C    0.000000   0.000000   0.000000   0.000000   0.000000   0.000000
    11  H    0.000000   0.000000   0.000000   0.000000   0.000000   0.000000
    12  O    0.000000   0.000000   0.000000   0.000000   0.000000   0.000000
    13  H    0.689410   0.000000   0.000000   0.000000   0.000000   0.000000
    14  C    0.000000   4.075740   0.000000   0.000000   0.000000   0.000000
    15  C    0.000000   0.000000   4.146698   0.000000   0.000000   0.000000
    16  C    0.000000   0.000000   0.000000   4.244686   0.000000   0.000000
    17  C    0.000000   0.000000   0.000000   0.000000   4.144224   0.000000
    18  H    0.000000   0.000000   0.000000   0.000000   0.000000   0.846016
    19  C    0.000000   0.000000   0.000000   0.000000   0.000000   0.000000
    20  H    0.000000   0.000000   0.000000   0.000000   0.000000   0.000000
    21  C    0.000000   0.000000   0.000000   0.000000   0.000000   0.000000
    22  H    0.000000   0.000000   0.000000   0.000000   0.000000   0.000000
    23  H    0.000000   0.000000   0.000000   0.000000   0.000000   0.000000
    24  H    0.000000   0.000000   0.000000   0.000000   0.000000   0.000000
              19         20         21         22         23         24
     1  C    0.000000   0.000000   0.000000   0.000000   0.000000   0.000000
     2  O    0.000000   0.000000   0.000000   0.000000   0.000000   0.000000
     3  O    0.000000   0.000000   0.000000   0.000000   0.000000   0.000000
     4  H    0.000000   0.000000   0.000000   0.000000   0.000000   0.000000
     5  C    0.000000   0.000000   0.000000   0.000000   0.000000   0.000000
     6  H    0.000000   0.000000   0.000000   0.000000   0.000000   0.000000
     7  N    0.000000   0.000000   0.000000   0.000000   0.000000   0.000000
     8  H    0.000000   0.000000   0.000000   0.000000   0.000000   0.000000
     9  H    0.000000   0.000000   0.000000   0.000000   0.000000   0.000000
    10  C    0.000000   0.000000   0.000000   0.000000   0.000000   0.000000
    11  H    0.000000   0.000000   0.000000   0.000000   0.000000   0.000000
    12  O    0.000000   0.000000   0.000000   0.000000   0.000000   0.000000
    13  H    0.000000   0.000000   0.000000   0.000000   0.000000   0.000000
    14  C    0.000000   0.000000   0.000000   0.000000   0.000000   0.000000
    15  C    0.000000   0.000000   0.000000   0.000000   0.000000   0.000000
    16  C    0.000000   0.000000   0.000000   0.000000   0.000000   0.000000
    17  C    0.000000   0.000000   0.000000   0.000000   0.000000   0.000000
    18  H    0.000000   0.000000   0.000000   0.000000   0.000000   0.000000
    19  C    4.151249   0.000000   0.000000   0.000000   0.000000   0.000000
    20  H    0.000000   0.709262   0.000000   0.000000   0.000000   0.000000
    21  C    0.000000   0.000000   4.133060   0.000000   0.000000   0.000000
    22  H    0.000000   0.000000   0.000000   0.850973   0.000000   0.000000
    23  H    0.000000   0.000000   0.000000   0.000000   0.859729   0.000000
    24  H    0.000000   0.000000   0.000000   0.000000   0.000000   0.853742
 Mulliken charges:
               1
     1  C    0.424978
     2  O   -0.500766
     3  O   -0.339818
     4  H    0.298383
     5  C   -0.103735
     6  H    0.199720
     7  N   -0.477786
     8  H    0.217828
     9  H    0.226259
    10  C    0.166800
    11  H    0.115256
    12  O   -0.522331
    13  H    0.310590
    14  C   -0.075740
    15  C   -0.146698
    16  C   -0.244686
    17  C   -0.144224
    18  H    0.153984
    19  C   -0.151249
    20  H    0.290738
    21  C   -0.133060
    22  H    0.149027
    23  H    0.140271
    24  H    0.146258
 Sum of Mulliken charges =   0.00000
 Mulliken charges with hydrogens summed into heavy atoms:
               1
     1  C    0.424978
     2  O   -0.500766
     3  O    0.249303
     5  C    0.095985
     7  N   -0.033699
    10  C    0.282056
    12  O   -0.211741
    14  C   -0.075740
    15  C    0.007286
    16  C   -0.244686
    17  C    0.004803
    19  C   -0.010978
    21  C    0.013199
 Charge=              0.0000 electrons
 Dipole moment (field-independent basis, Debye):
    X=              2.8873    Y=             -2.0311    Z=              0.9131  Tot=              3.6463
 N-N= 4.770643409093D+02 E-N=-8.622115023743D+02  KE=-4.389755894043D+01
 Calling FoFJK, ICntrl=      2127 FMM=F ISym2X=0 I1Cent= 0 IOpClX= 0 NMat=1 NMatS=1 NMatT=0.
 ***** Axes restored to original set *****
 -------------------------------------------------------------------
 Center     Atomic                   Forces (Hartrees/Bohr)
 Number     Number              X              Y              Z
 -------------------------------------------------------------------
      1        6           0.024603981    0.031494717    0.025799678
      2        8           0.009255590    0.001436442   -0.003165909
      3        8           0.100178092    0.100003296    0.158389660
      4        1           0.025212275   -0.023925876    0.047142490
      5        6           0.010973336    0.021783697   -0.000135198
      6        1          -0.001375011    0.002941488    0.004644349
      7        7          -0.007479653   -0.000570603   -0.005467010
      8        1           0.001239154    0.002318043   -0.001063747
      9        1          -0.001065583   -0.000478587   -0.000757391
     10        6          -0.019086988   -0.006907391    0.007482260
     11        1           0.011676332   -0.007418182   -0.020396102
     12        8           0.011239146    0.007107072    0.009575924
     13        1          -0.006224741   -0.000819805   -0.008792317
     14        6          -0.006292570    0.017387860   -0.013377727
     15        6          -0.004620276    0.005274318   -0.002957468
     16        6          -0.143396180   -0.018506908   -0.064834263
     17        6          -0.008260226    0.002207822   -0.001286071
     18        1           0.000351394   -0.002932516    0.002818151
     19        6          -0.007412247   -0.010749986    0.005741217
     20        1           0.009218164   -0.119935321   -0.139221718
     21        6          -0.005401320   -0.007025345    0.004036503
     22        1           0.005229051   -0.000991536    0.000475009
     23        1          -0.002075589    0.004916986   -0.002810612
     24        1           0.003513871    0.003390313   -0.001839710
 -------------------------------------------------------------------
 Cartesian Forces:  Max     0.158389660 RMS     0.039637224

 GradGradGradGradGradGradGradGradGradGradGradGradGradGradGradGradGradGrad
 Berny optimization.
 FormGI is forming the generalized inverse of G from B-inverse, IUseBI=4.
 Internal  Forces:  Max     0.152810928 RMS     0.020760521
 Search for a local minimum.
 Step number   1 out of a maximum of  144
 All quantities printed in internal units (Hartrees-Bohrs-Radians)
 Mixed Optimization -- RFO/linear search
 Second derivative matrix not updated -- first step.
 ITU=  0
     Eigenvalues ---    0.00543   0.00698   0.01189   0.01295   0.01451
     Eigenvalues ---    0.01727   0.01954   0.02152   0.02153   0.02154
     Eigenvalues ---    0.02155   0.02155   0.02156   0.02893   0.03161
     Eigenvalues ---    0.03997   0.04010   0.04659   0.05107   0.05785
     Eigenvalues ---    0.06886   0.07353   0.10979   0.11532   0.12644
     Eigenvalues ---    0.13922   0.15065   0.16000   0.16000   0.16000
     Eigenvalues ---    0.16000   0.16000   0.16000   0.16000   0.17622
     Eigenvalues ---    0.18230   0.19942   0.21048   0.22000   0.23075
     Eigenvalues ---    0.24960   0.27242   0.27669   0.28062   0.28941
     Eigenvalues ---    0.30251   0.31494   0.33709   0.33718   0.33718
     Eigenvalues ---    0.33720   0.33796   0.37230   0.39822   0.40989
     Eigenvalues ---    0.42019   0.44413   0.44979   0.45539   0.46417
     Eigenvalues ---    0.46464   0.46481   0.48124   0.48525   0.55473
     Eigenvalues ---    1.01901
 RFO step:  Lambda=-1.41617682D-01 EMin= 5.42837592D-03
 Linear search not attempted -- first point.
 Maximum step size (   0.300) exceeded in Quadratic search.
    -- Step size scaled by   0.533
 Iteration  1 RMS(Cart)=  0.04107088 RMS(Int)=  0.00045615
 Iteration  2 RMS(Cart)=  0.00057338 RMS(Int)=  0.00020301
 Iteration  3 RMS(Cart)=  0.00000027 RMS(Int)=  0.00020301
 Variable       Old X    -DE/DX   Delta X   Delta X   Delta X     New X
                                 (Linear)    (Quad)   (Total)
    R1        2.27887   0.00820   0.00000   0.00377   0.00377   2.28264
    R2        2.59818   0.04688   0.00000   0.04089   0.04096   2.63914
    R3        2.85721   0.02203   0.00000   0.02645   0.02650   2.88371
    R4        1.88083   0.04744   0.00000   0.04034   0.04034   1.92117
    R5        3.10347   0.13952   0.00000   0.18894   0.18863   3.29210
    R6        2.05731   0.15281   0.00000   0.18935   0.19028   2.24759
    R7        2.11780   0.00521   0.00000   0.00608   0.00608   2.12388
    R8        2.80975  -0.00274   0.00000  -0.00305  -0.00305   2.80670
    R9        2.91018   0.02374   0.00000   0.02758   0.02749   2.93767
   R10        1.92000   0.00063   0.00000   0.00056   0.00056   1.92056
   R11        1.92664  -0.00130   0.00000  -0.00118  -0.00118   1.92546
   R12        2.02201   0.02415   0.00000   0.02505   0.02505   2.04706
   R13        2.70231   0.00252   0.00000   0.00244   0.00244   2.70475
   R14        2.91018   0.00964   0.00000   0.00921   0.00916   2.91934
   R15        1.81414   0.01047   0.00000   0.00801   0.00801   1.82215
   R16        2.63647   0.00683   0.00000   0.00595   0.00594   2.64241
   R17        2.63584   0.02287   0.00000   0.02032   0.02028   2.65613
   R18        2.63562   0.00494   0.00000   0.00334   0.00331   2.63893
   R19        2.07805  -0.00380   0.00000  -0.00423  -0.00423   2.07382
   R20        2.63643   0.01174   0.00000   0.01134   0.01137   2.64779
   R21        2.07795   0.06050   0.00000   0.07092   0.07054   2.14849
   R22        2.63697   0.00502   0.00000   0.00347   0.00345   2.64043
   R23        2.07809  -0.00534   0.00000  -0.00594  -0.00594   2.07215
   R24        2.63584   0.00196   0.00000   0.00178   0.00179   2.63763
   R25        2.07825  -0.00600   0.00000  -0.00668  -0.00668   2.07156
   R26        2.07809  -0.00521   0.00000  -0.00580  -0.00580   2.07229
    A1        2.10337   0.00620   0.00000   0.00777   0.00766   2.11102
    A2        2.26987  -0.00403   0.00000  -0.00634  -0.00643   2.26344
    A3        1.90914  -0.00240   0.00000  -0.00215  -0.00212   1.90702
    A4        1.97007  -0.00024   0.00000   0.00172   0.00146   1.97152
    A5        2.24015  -0.01835   0.00000  -0.01892  -0.01849   2.22167
    A6        2.01285   0.00847   0.00000   0.02143   0.02025   2.03309
    A7        1.86405   0.02199   0.00000   0.03678   0.03667   1.90072
    A8        1.40478   0.01752   0.00000   0.04313   0.04287   1.44764
    A9        1.91867  -0.00378   0.00000  -0.00458  -0.00457   1.91411
   A10        1.88972   0.00232   0.00000   0.00825   0.00834   1.89806
   A11        1.89181   0.01147   0.00000   0.01536   0.01536   1.90717
   A12        1.88841   0.00210   0.00000  -0.00034  -0.00040   1.88801
   A13        1.86193   0.00000   0.00000   0.00168   0.00156   1.86349
   A14        2.01239  -0.01222   0.00000  -0.02049  -0.02046   1.99193
   A15        1.91999   0.00460   0.00000   0.00847   0.00847   1.92846
   A16        1.93129  -0.00134   0.00000  -0.00202  -0.00202   1.92927
   A17        1.87905  -0.00080   0.00000  -0.00074  -0.00074   1.87831
   A18        1.91063   0.00312   0.00000   0.00678   0.00659   1.91723
   A19        1.91063  -0.01773   0.00000  -0.02795  -0.02782   1.88281
   A20        1.91063   0.01555   0.00000   0.02144   0.02115   1.93178
   A21        1.91063   0.00147   0.00000  -0.00296  -0.00304   1.90760
   A22        1.91063  -0.00282   0.00000   0.00057   0.00048   1.91111
   A23        1.91063   0.00041   0.00000   0.00213   0.00236   1.91300
   A24        1.91114   0.00384   0.00000   0.00678   0.00678   1.91792
   A25        2.09435  -0.00153   0.00000  -0.00020  -0.00016   2.09419
   A26        2.09447   0.00884   0.00000   0.00517   0.00501   2.09948
   A27        2.09437  -0.00731   0.00000  -0.00496  -0.00486   2.08951
   A28        2.09455   0.00260   0.00000   0.00276   0.00274   2.09729
   A29        2.09406  -0.00051   0.00000   0.00001   0.00002   2.09408
   A30        2.09458  -0.00209   0.00000  -0.00277  -0.00276   2.09181
   A31        1.79487  -0.01444   0.00000  -0.01507  -0.01490   1.77997
   A32        2.13111   0.00626   0.00000   0.00916   0.00936   2.14047
   A33        2.09440   0.00121   0.00000  -0.00214  -0.00225   2.09215
   A34        2.09453   0.01232   0.00000   0.01249   0.01249   2.10702
   A35        2.09426  -0.01354   0.00000  -0.01036  -0.01033   2.08393
   A36        2.09429   0.00365   0.00000   0.00279   0.00276   2.09705
   A37        2.09462  -0.00201   0.00000  -0.00172  -0.00170   2.09292
   A38        2.09427  -0.00164   0.00000  -0.00107  -0.00105   2.09322
   A39        2.09448  -0.00078   0.00000   0.00140   0.00145   2.09593
   A40        2.09411   0.00082   0.00000   0.00005   0.00002   2.09414
   A41        2.09459  -0.00003   0.00000  -0.00145  -0.00147   2.09312
   A42        2.09429   0.00063   0.00000   0.00016   0.00016   2.09445
   A43        2.09407  -0.00045   0.00000  -0.00031  -0.00031   2.09375
   A44        2.09483  -0.00018   0.00000   0.00016   0.00016   2.09499
    D1        0.03854   0.01499   0.00000   0.03903   0.03918   0.07772
    D2       -2.35631  -0.00043   0.00000  -0.00757  -0.00766  -2.36397
    D3       -1.53352  -0.00922   0.00000  -0.02192  -0.02166  -1.55517
    D4        3.14101   0.00937   0.00000   0.02146   0.02149  -3.12068
    D5        0.74616  -0.00605   0.00000  -0.02515  -0.02534   0.72082
    D6        1.56896  -0.01484   0.00000  -0.03949  -0.03935   1.52962
    D7       -2.05961   0.00064   0.00000  -0.00137  -0.00130  -2.06091
    D8        0.00000   0.00239   0.00000   0.00047   0.00050   0.00050
    D9        2.19457  -0.00380   0.00000  -0.00960  -0.00940   2.18517
   D10        1.12601   0.00666   0.00000   0.01798   0.01799   1.14399
   D11       -3.09757   0.00841   0.00000   0.01981   0.01978  -3.07778
   D12       -0.90300   0.00222   0.00000   0.00975   0.00989  -0.89311
   D13       -0.61490   0.00052   0.00000   0.01343   0.01387  -0.60103
   D14       -3.03130   0.00939   0.00000   0.02530   0.02551  -3.00579
   D15       -3.04398  -0.00805   0.00000  -0.02110  -0.02104  -3.06502
   D16        0.82280   0.00083   0.00000  -0.00923  -0.00939   0.81341
   D17        1.05441   0.00423   0.00000   0.00686   0.00683   1.06124
   D18       -1.01968   0.00315   0.00000   0.00369   0.00366  -1.01602
   D19        3.13324   0.00220   0.00000   0.00583   0.00583   3.13907
   D20        1.05915   0.00112   0.00000   0.00267   0.00266   1.06181
   D21       -1.06750  -0.00412   0.00000  -0.00543  -0.00538  -1.07288
   D22        3.14159  -0.00520   0.00000  -0.00859  -0.00855   3.13304
   D23       -1.04720  -0.00374   0.00000  -0.00760  -0.00757  -1.05476
   D24       -3.14159   0.00340   0.00000   0.00899   0.00898  -3.13261
   D25        1.04720   0.00424   0.00000   0.01037   0.01054   1.05774
   D26       -3.11259  -0.00526   0.00000  -0.01112  -0.01112  -3.12370
   D27        1.07620   0.00188   0.00000   0.00548   0.00543   1.08163
   D28       -1.01819   0.00272   0.00000   0.00686   0.00699  -1.01120
   D29        1.07359  -0.00034   0.00000   0.00083   0.00077   1.07436
   D30       -1.02081   0.00681   0.00000   0.01742   0.01732  -1.00349
   D31       -3.11520   0.00764   0.00000   0.01880   0.01888  -3.09632
   D32       -3.03558  -0.00579   0.00000  -0.01023  -0.01009  -3.04567
   D33        1.15321   0.00035   0.00000   0.00040   0.00033   1.15355
   D34       -0.94118   0.00265   0.00000   0.00022   0.00016  -0.94102
   D35        2.09439  -0.01055   0.00000  -0.02003  -0.01997   2.07442
   D36       -1.04729  -0.00991   0.00000  -0.01703  -0.01695  -1.06423
   D37       -2.09440   0.00107   0.00000   0.00174   0.00176  -2.09264
   D38        1.04711   0.00170   0.00000   0.00475   0.00478   1.05189
   D39        0.00000   0.00140   0.00000  -0.00024  -0.00022  -0.00022
   D40        3.14150   0.00203   0.00000   0.00277   0.00280  -3.13888
   D41       -3.14112   0.00009   0.00000   0.00232   0.00229  -3.13884
   D42       -0.00091  -0.00029   0.00000   0.00015   0.00014  -0.00077
   D43        0.00056  -0.00055   0.00000  -0.00069  -0.00072  -0.00016
   D44        3.14078  -0.00092   0.00000  -0.00286  -0.00287   3.13791
   D45        0.70633   0.00548   0.00000   0.00230   0.00178   0.70811
   D46       -3.14124  -0.00031   0.00000  -0.00317  -0.00315   3.13880
   D47       -0.00010  -0.01421   0.00000  -0.01747  -0.01707  -0.01717
   D48       -2.43536   0.00611   0.00000   0.00531   0.00480  -2.43056
   D49        0.00026   0.00033   0.00000  -0.00016  -0.00013   0.00013
   D50        3.14140  -0.01357   0.00000  -0.01446  -0.01405   3.12735
   D51       -0.00099   0.00031   0.00000   0.00083   0.00085  -0.00015
   D52        3.14093   0.00003   0.00000  -0.00036  -0.00034   3.14059
   D53       -3.14120   0.00068   0.00000   0.00300   0.00299  -3.13822
   D54        0.00072   0.00041   0.00000   0.00181   0.00180   0.00252
   D55        2.29779  -0.01559   0.00000  -0.01665  -0.01623   2.28155
   D56       -0.84359  -0.01556   0.00000  -0.01728  -0.01684  -0.86043
   D57       -0.00066   0.00013   0.00000   0.00086   0.00086   0.00021
   D58        3.14116   0.00017   0.00000   0.00023   0.00026   3.14141
   D59        3.14138   0.01402   0.00000   0.01516   0.01460  -3.12720
   D60        0.00001   0.01406   0.00000   0.01453   0.01399   0.01400
   D61        0.00060   0.00015   0.00000  -0.00013  -0.00011   0.00048
   D62       -3.14153  -0.00012   0.00000  -0.00035  -0.00036   3.14129
   D63       -3.14132   0.00042   0.00000   0.00105   0.00107  -3.14025
   D64       -0.00026   0.00015   0.00000   0.00083   0.00082   0.00056
   D65        0.00023  -0.00037   0.00000  -0.00071  -0.00074  -0.00051
   D66       -3.14083  -0.00010   0.00000  -0.00049  -0.00049  -3.14132
   D67       -3.14158  -0.00040   0.00000  -0.00008  -0.00013   3.14147
   D68        0.00054  -0.00013   0.00000   0.00014   0.00011   0.00065
         Item               Value     Threshold  Converged?
 Maximum Force            0.152811     0.000450     NO 
 RMS     Force            0.020761     0.000300     NO 
 Maximum Displacement     0.165019     0.001800     NO 
 RMS     Displacement     0.040847     0.001200     NO 
 Predicted change in Energy=-6.245428D-02
 GradGradGradGradGradGradGradGradGradGradGradGradGradGradGradGradGradGrad

                          Input orientation:                          
 ---------------------------------------------------------------------
 Center     Atomic      Atomic             Coordinates (Angstroms)
 Number     Number       Type             X           Y           Z
 ---------------------------------------------------------------------
      1          6           0        0.978097   -0.838783    1.827967
      2          8           0        2.155963   -1.044947    1.998834
      3          8           0        0.029037   -1.826327    2.100825
      4          1           0        0.434694   -2.663990    2.509868
      5          6           0        0.277438    0.386059    1.247030
      6          1           0       -0.396635    0.840013    2.023385
      7          7           0        1.304508    1.393793    0.878868
      8          1           0        1.936807    1.017600    0.177742
      9          1           0        1.862572    1.649041    1.692250
     10          6           0       -0.632045   -0.055099    0.065999
     11          1           0       -0.031603   -0.518476   -0.707433
     12          8           0       -1.263698    1.115238   -0.463072
     13          1           0       -1.901071    0.865425   -1.142123
     14          6           0       -1.708889   -1.051764    0.549338
     15          6           0       -3.064160   -0.729627    0.427991
     16          6           0       -1.333084   -2.282323    1.115112
     17          6           0       -4.040606   -1.626395    0.866707
     18          1           0       -3.362332    0.231441   -0.009915
     19          6           0       -2.317041   -3.178280    1.553651
     20          1           0       -0.236559   -2.567561    1.209401
     21          6           0       -3.667925   -2.850053    1.428924
     22          1           0       -5.102188   -1.369176    0.770429
     23          1           0       -2.026052   -4.138599    1.995037
     24          1           0       -4.437278   -3.551826    1.772669
 ---------------------------------------------------------------------
                    Distance matrix (angstroms):
                    1          2          3          4          5
     1  C    0.000000
     2  O    1.207919   0.000000
     3  O    1.396570   2.268209   0.000000
     4  H    2.022784   2.417690   1.016638   0.000000
     5  C    1.525991   2.478275   2.384391   3.304888   0.000000
     6  H    2.178631   3.173237   2.701215   3.633980   1.123911
     7  N    2.447800   2.815448   3.672761   4.458961   1.485242
     8  H    2.662428   2.760163   3.927563   4.609691   2.072613
     9  H    2.643858   2.727204   3.950565   4.616229   2.075089
    10  C    2.512220   3.533927   2.777551   3.730514   1.554545
    11  H    2.747789   3.519446   3.098461   3.895085   2.175687
    12  O    3.754025   4.735131   4.110661   5.099556   2.414798
    13  H    4.473853   5.474911   4.635467   5.590134   3.268599
    14  C    2.983311   4.127731   2.455086   3.322333   2.549432
    15  C    4.279216   5.460464   3.683611   4.507544   3.616885
    16  C    2.816652   3.805984   1.742107   2.283868   3.119526
    17  C    5.170274   6.325920   4.257348   4.879025   4.779134
    18  H    4.833479   6.009644   4.493442   5.399096   3.853795
    19  C    4.050486   4.975648   2.762474   2.958191   4.419259
    20  H    2.201519   2.943759   1.189372   1.466660   2.998246
    21  C    5.078382   6.123797   3.894483   4.246710   5.106016
    22  H    6.194318   7.368505   5.320565   5.946365   5.678765
    23  H    4.465603   5.201918   3.095349   2.914583   5.132066
    24  H    6.057223   7.057367   4.799272   5.006778   6.165369
                    6          7          8          9         10
     6  H    0.000000
     7  N    2.123789   0.000000
     8  H    2.980417   1.016317   0.000000
     9  H    2.422435   1.018910   1.642547   0.000000
    10  C    2.165180   2.551525   2.786067   3.431020   0.000000
    11  H    3.071825   2.821048   2.649095   3.747600   1.083257
    12  O    2.647644   2.911027   3.265488   3.834569   1.431290
    13  H    3.504913   3.826135   4.061343   4.776267   1.979230
    14  C    2.733797   3.894856   4.208497   4.621248   1.544846
    15  C    3.482061   4.878265   5.303311   5.615079   2.549747
    16  C    3.383915   4.530621   4.739234   5.099110   2.559808
    17  C    4.549682   6.139375   6.572279   6.801288   3.837759
    18  H    3.646921   4.890848   5.360423   5.675084   2.746332
    19  C    4.478314   5.871525   6.131375   6.386815   3.847932
    20  H    3.507101   4.263386   4.317548   4.734894   2.788591
    21  C    4.967023   6.560327   6.923671   7.134255   4.345791
    22  H    5.347209   6.977930   7.456234   7.646389   4.712239
    23  H    5.238548   6.553306   6.752273   6.979244   4.726459
    24  H    5.973099   7.630605   8.003275   8.169676   5.442391
                   11         12         13         14         15
    11  H    0.000000
    12  O    2.060774   0.000000
    13  H    2.366230   0.964241   0.000000
    14  C    2.162674   2.432914   2.563901   0.000000
    15  C    3.245023   2.727487   2.522346   1.398305   0.000000
    16  C    2.850733   3.746852   3.914848   1.405562   2.424794
    17  C    4.447191   4.122631   3.849959   2.422360   1.396464
    18  H    3.484632   2.321791   1.954256   2.166392   1.097416
    19  C    4.172563   4.859116   4.877682   2.429108   2.796640
    20  H    2.813363   4.173151   4.481703   2.213838   3.461782
    21  C    4.819036   5.008342   4.851478   2.800953   2.421281
    22  H    5.349635   4.735804   4.347235   3.415276   2.163294
    23  H    4.938265   5.850324   5.907423   3.423330   3.892863
    24  H    5.895939   6.070555   5.868600   3.897558   3.414442
                   16         17         18         19         20
    16  C    0.000000
    17  C    2.796895   0.000000
    18  H    3.420898   2.163349   0.000000
    19  C    1.401152   2.418866   3.894043   0.000000
    20  H    1.136934   3.933701   4.369394   2.195426   0.000000
    21  C    2.423279   1.397253   3.414565   1.395771   3.449966
    22  H    3.893429   1.096534   2.489580   3.412234   5.030226
    23  H    2.168002   3.412143   4.990263   1.096224   2.507523
    24  H    3.417608   2.164578   4.318128   2.164003   4.351102
                   21         22         23         24
    21  C    0.000000
    22  H    2.164191   0.000000
    23  H    2.162540   4.316478   0.000000
    24  H    1.096608   2.492098   2.491538   0.000000
 Stoichiometry    C9H11NO3
 Framework group  C1[X(C9H11NO3)]
 Deg. of freedom    66
 Full point group                 C1      NOp   1
 Largest Abelian subgroup         C1      NOp   1
 Largest concise Abelian subgroup C1      NOp   1
                         Standard orientation:                         
 ---------------------------------------------------------------------
 Center     Atomic      Atomic             Coordinates (Angstroms)
 Number     Number       Type             X           Y           Z
 ---------------------------------------------------------------------
      1          6           0       -1.752409   -1.089821   -0.163507
      2          8           0       -2.701306   -1.782943    0.116216
      3          8           0       -0.461405   -1.621062   -0.202233
      4          1           0       -0.441097   -2.625577   -0.047016
      5          6           0       -1.687834    0.410453   -0.434907
      6          1           0       -1.333197    0.589806   -1.486211
      7          7           0       -3.053788    0.978644   -0.303481
      8          1           0       -3.410676    0.833190    0.636931
      9          1           0       -3.694715    0.521959   -0.950652
     10          6           0       -0.636609    1.057981    0.509680
     11          1           0       -0.921949    0.897834    1.542337
     12          8           0       -0.609211    2.463176    0.238998
     13          1           0        0.094417    2.881702    0.748413
     14          6           0        0.764015    0.454999    0.262267
     15          6           0        1.813355    1.275980   -0.162156
     16          6           0        0.989357   -0.918437    0.458480
     17          6           0        3.080108    0.734231   -0.390092
     18          1           0        1.641341    2.348270   -0.320039
     19          6           0        2.262367   -1.456636    0.228225
     20          1           0        0.152030   -1.599113    0.816503
     21          6           0        3.305098   -0.630911   -0.194938
     22          1           0        3.899805    1.381647   -0.723764
     23          1           0        2.440245   -2.527514    0.380828
     24          1           0        4.301005   -1.053110   -0.375127
 ---------------------------------------------------------------------
 Rotational constants (GHZ):      1.4026851      0.6383806      0.4573316
 Standard basis: VSTO-6G (5D, 7F)
 There are    63 symmetry adapted cartesian basis functions of A   symmetry.
 There are    63 symmetry adapted basis functions of A   symmetry.
    63 basis functions,   378 primitive gaussians,    63 cartesian basis functions
    35 alpha electrons       35 beta electrons
       nuclear repulsion energy       473.8431366937 Hartrees.
 Integral buffers will be    262144 words long.
 Regular integral format.
 Two-electron integral symmetry is turned off.
 Do NDO integrals.
 One-electron integrals computed using PRISM.
 NBasis=    63 RedAO= F EigKep=  0.00D+00  NBF=    63
 NBsUse=    63 1.00D-04 EigRej=  0.00D+00 NBFU=    63
 Initial guess from the checkpoint file:  "D:\mindmap\gaussian\calculate\opt_freq\gly\gly.chk"
 B after Tr=     0.000000    0.000000    0.000000
         Rot=    0.999994   -0.001212   -0.000688    0.003127 Ang=  -0.39 deg.
 Overlap will be assumed to be unity.
 Keep J ints in memory in canonical form, NReq=912005.
 Requested convergence on RMS density matrix=1.00D-08 within 128 cycles.
 Requested convergence on MAX density matrix=1.00D-06.
 Requested convergence on             energy=1.00D-06.
 No special actions if energy rises.
 SCF Done:  E(RPM6) = -0.377615709600E-01 A.U. after   17 cycles
            NFock= 16  Conv=0.33D-08     -V/T= 0.9991
 Calling FoFJK, ICntrl=      2127 FMM=F ISym2X=0 I1Cent= 0 IOpClX= 0 NMat=1 NMatS=1 NMatT=0.
 ***** Axes restored to original set *****
 -------------------------------------------------------------------
 Center     Atomic                   Forces (Hartrees/Bohr)
 Number     Number              X              Y              Z
 -------------------------------------------------------------------
      1        6           0.007490105    0.012674000    0.017852617
      2        8          -0.002013318    0.001395046   -0.001883956
      3        8           0.093676809    0.077689825    0.116534422
      4        1           0.013102865   -0.005014021    0.026337120
      5        6           0.006766367    0.011431805   -0.002021339
      6        1          -0.000485793    0.001268450    0.002620680
      7        7          -0.006716568   -0.002923255   -0.003373064
      8        1           0.000462231    0.001903533   -0.000927415
      9        1          -0.000655834   -0.000001205   -0.000612478
     10        6          -0.014809636   -0.009329302    0.010456165
     11        1           0.007860948   -0.004476727   -0.013578974
     12        8           0.009762411    0.004787167    0.008223710
     13        1          -0.004648900   -0.000906478   -0.006864685
     14        6           0.002591757    0.008092383   -0.005252653
     15        6          -0.001334965    0.002392706   -0.001245277
     16        6          -0.095058278   -0.013132288   -0.049841831
     17        6          -0.004876630    0.001335497   -0.000887845
     18        1           0.000371619   -0.002198410    0.002282571
     19        6          -0.000243018   -0.003008932    0.002309944
     20        1          -0.013024470   -0.083896118   -0.099403793
     21        6          -0.003456535   -0.003686687    0.002447819
     22        1           0.003833281   -0.000764287    0.000302431
     23        1          -0.001215832    0.003883313   -0.002124881
     24        1           0.002621384    0.002483985   -0.001349287
 -------------------------------------------------------------------
 Cartesian Forces:  Max     0.116534422 RMS     0.028879213

 GradGradGradGradGradGradGradGradGradGradGradGradGradGradGradGradGradGrad
 Berny optimization.
 Using GEDIIS/GDIIS optimizer.
 FormGI is forming the generalized inverse of G from B-inverse, IUseBI=4.
 Internal  Forces:  Max     0.111717849 RMS     0.013915159
 Search for a local minimum.
 Step number   2 out of a maximum of  144
 All quantities printed in internal units (Hartrees-Bohrs-Radians)
 Mixed Optimization -- RFO/linear search
 Update second derivatives using D2CorX and points    1    2
 DE= -6.25D-02 DEPred=-6.25D-02 R= 1.00D+00
 TightC=F SS=  1.41D+00  RLast= 3.17D-01 DXNew= 5.0454D-01 9.5147D-01
 Trust test= 1.00D+00 RLast= 3.17D-01 DXMaxT set to 5.05D-01
 ITU=  1  0
 Use linear search instead of GDIIS.
 Linear search step of   0.600 exceeds DXMaxT=   0.505 but not scaled.
 Quartic linear search produced a step of  2.00000.
 Iteration  1 RMS(Cart)=  0.05909125 RMS(Int)=  0.02056971
 Iteration  2 RMS(Cart)=  0.02502403 RMS(Int)=  0.00108854
 Iteration  3 RMS(Cart)=  0.00023650 RMS(Int)=  0.00107446
 Iteration  4 RMS(Cart)=  0.00000081 RMS(Int)=  0.00107446
 Variable       Old X    -DE/DX   Delta X   Delta X   Delta X     New X
                                 (Linear)    (Quad)   (Total)
    R1        2.28264  -0.00247   0.00754   0.00000   0.00754   2.29017
    R2        2.63914   0.01201   0.08192   0.00000   0.08231   2.72145
    R3        2.88371   0.00806   0.05300   0.00000   0.05327   2.93697
    R4        1.92117   0.01996   0.08067   0.00000   0.08067   2.00184
    R5        3.29210   0.09667   0.37726   0.00000   0.37524   3.66734
    R6        2.24759   0.11172   0.38056   0.00000   0.38527   2.63285
    R7        2.12388   0.00261   0.01217   0.00000   0.01217   2.13605
    R8        2.80670  -0.00425  -0.00610   0.00000  -0.00610   2.80060
    R9        2.93767   0.00938   0.05497   0.00000   0.05446   2.99213
   R10        1.92056   0.00022   0.00113   0.00000   0.00113   1.92169
   R11        1.92546  -0.00085  -0.00236   0.00000  -0.00236   1.92310
   R12        2.04706   0.01597   0.05010   0.00000   0.05010   2.09716
   R13        2.70475   0.00041   0.00488   0.00000   0.00488   2.70962
   R14        2.91934  -0.00119   0.01832   0.00000   0.01800   2.93734
   R15        1.82215   0.00814   0.01603   0.00000   0.01603   1.83818
   R16        2.64241   0.00207   0.01189   0.00000   0.01187   2.65428
   R17        2.65613   0.00511   0.04056   0.00000   0.04034   2.69646
   R18        2.63893   0.00146   0.00662   0.00000   0.00647   2.64540
   R19        2.07382  -0.00294  -0.00846   0.00000  -0.00846   2.06535
   R20        2.64779   0.00095   0.02273   0.00000   0.02288   2.67068
   R21        2.14849   0.02935   0.14109   0.00000   0.13960   2.28810
   R22        2.64043   0.00129   0.00690   0.00000   0.00677   2.64719
   R23        2.07215  -0.00392  -0.01189   0.00000  -0.01189   2.06026
   R24        2.63763   0.00045   0.00358   0.00000   0.00359   2.64122
   R25        2.07156  -0.00458  -0.01337   0.00000  -0.01337   2.05820
   R26        2.07229  -0.00385  -0.01161   0.00000  -0.01161   2.06068
    A1        2.11102   0.00213   0.01531   0.00000   0.01454   2.12557
    A2        2.26344  -0.00133  -0.01285   0.00000  -0.01338   2.25006
    A3        1.90702  -0.00102  -0.00423   0.00000  -0.00393   1.90310
    A4        1.97152  -0.00140   0.00291   0.00000   0.00105   1.97257
    A5        2.22167  -0.01088  -0.03697   0.00000  -0.03486   2.18681
    A6        2.03309   0.00856   0.04049   0.00000   0.03437   2.06746
    A7        1.90072   0.01390   0.07335   0.00000   0.07263   1.97335
    A8        1.44764   0.01318   0.08574   0.00000   0.08424   1.53188
    A9        1.91411  -0.00290  -0.00914   0.00000  -0.00906   1.90504
   A10        1.89806   0.00303   0.01668   0.00000   0.01720   1.91526
   A11        1.90717   0.00704   0.03071   0.00000   0.03063   1.93781
   A12        1.88801   0.00149  -0.00080   0.00000  -0.00120   1.88681
   A13        1.86349   0.00076   0.00312   0.00000   0.00243   1.86592
   A14        1.99193  -0.00952  -0.04091   0.00000  -0.04071   1.95122
   A15        1.92846   0.00330   0.01693   0.00000   0.01692   1.94538
   A16        1.92927  -0.00032  -0.00405   0.00000  -0.00406   1.92521
   A17        1.87831  -0.00061  -0.00148   0.00000  -0.00150   1.87681
   A18        1.91723   0.00250   0.01318   0.00000   0.01210   1.92933
   A19        1.88281  -0.01354  -0.05565   0.00000  -0.05486   1.82795
   A20        1.93178   0.01023   0.04230   0.00000   0.04056   1.97234
   A21        1.90760   0.00088  -0.00607   0.00000  -0.00649   1.90111
   A22        1.91111  -0.00205   0.00096   0.00000   0.00051   1.91162
   A23        1.91300   0.00180   0.00472   0.00000   0.00604   1.91904
   A24        1.91792   0.00209   0.01356   0.00000   0.01356   1.93148
   A25        2.09419  -0.00204  -0.00031   0.00000  -0.00008   2.09411
   A26        2.09948   0.00610   0.01001   0.00000   0.00918   2.10865
   A27        2.08951  -0.00406  -0.00971   0.00000  -0.00913   2.08038
   A28        2.09729   0.00159   0.00549   0.00000   0.00542   2.10271
   A29        2.09408  -0.00031   0.00003   0.00000   0.00006   2.09414
   A30        2.09181  -0.00128  -0.00553   0.00000  -0.00550   2.08631
   A31        1.77997  -0.01186  -0.02981   0.00000  -0.02878   1.75118
   A32        2.14047   0.00455   0.01873   0.00000   0.01967   2.16014
   A33        2.09215   0.00245  -0.00450   0.00000  -0.00511   2.08704
   A34        2.10702   0.00887   0.02498   0.00000   0.02472   2.13174
   A35        2.08393  -0.01142  -0.02066   0.00000  -0.02020   2.06372
   A36        2.09705   0.00088   0.00551   0.00000   0.00533   2.10238
   A37        2.09292  -0.00061  -0.00341   0.00000  -0.00332   2.08960
   A38        2.09322  -0.00027  -0.00211   0.00000  -0.00202   2.09120
   A39        2.09593  -0.00025   0.00290   0.00000   0.00318   2.09911
   A40        2.09414   0.00012   0.00005   0.00000  -0.00009   2.09404
   A41        2.09312   0.00013  -0.00295   0.00000  -0.00309   2.09003
   A42        2.09445  -0.00059   0.00031   0.00000   0.00030   2.09475
   A43        2.09375   0.00018  -0.00063   0.00000  -0.00062   2.09313
   A44        2.09499   0.00041   0.00032   0.00000   0.00032   2.09531
    D1        0.07772   0.00944   0.07836   0.00000   0.07909   0.15681
    D2       -2.36397   0.00091  -0.01531   0.00000  -0.01549  -2.37946
    D3       -1.55517  -0.00963  -0.04332   0.00000  -0.04204  -1.59721
    D4       -3.12068   0.00576   0.04298   0.00000   0.04300  -3.07767
    D5        0.72082  -0.00277  -0.05069   0.00000  -0.05158   0.66924
    D6        1.52962  -0.01331  -0.07869   0.00000  -0.07813   1.45149
    D7       -2.06091   0.00004  -0.00260   0.00000  -0.00218  -2.06309
    D8        0.00050   0.00195   0.00100   0.00000   0.00117   0.00167
    D9        2.18517  -0.00327  -0.01880   0.00000  -0.01766   2.16752
   D10        1.14399   0.00399   0.03597   0.00000   0.03603   1.18002
   D11       -3.07778   0.00590   0.03956   0.00000   0.03937  -3.03841
   D12       -0.89311   0.00068   0.01977   0.00000   0.02055  -0.87256
   D13       -0.60103  -0.00083   0.02774   0.00000   0.03008  -0.57095
   D14       -3.00579   0.00478   0.05102   0.00000   0.05226  -2.95353
   D15       -3.06502  -0.00467  -0.04207   0.00000  -0.04197  -3.10699
   D16        0.81341   0.00094  -0.01879   0.00000  -0.01979   0.79362
   D17        1.06124   0.00271   0.01365   0.00000   0.01342   1.07466
   D18       -1.01602   0.00157   0.00731   0.00000   0.00707  -1.00895
   D19        3.13907   0.00180   0.01166   0.00000   0.01161  -3.13251
   D20        1.06181   0.00066   0.00532   0.00000   0.00526   1.06707
   D21       -1.07288  -0.00212  -0.01076   0.00000  -0.01047  -1.08335
   D22        3.13304  -0.00325  -0.01710   0.00000  -0.01682   3.11622
   D23       -1.05476  -0.00311  -0.01513   0.00000  -0.01488  -1.06964
   D24       -3.13261   0.00242   0.01796   0.00000   0.01791  -3.11470
   D25        1.05774   0.00261   0.02109   0.00000   0.02211   1.07985
   D26       -3.12370  -0.00384  -0.02223   0.00000  -0.02219   3.13729
   D27        1.08163   0.00169   0.01086   0.00000   0.01059   1.09223
   D28       -1.01120   0.00187   0.01399   0.00000   0.01479  -0.99641
   D29        1.07436  -0.00052   0.00155   0.00000   0.00125   1.07561
   D30       -1.00349   0.00501   0.03464   0.00000   0.03404  -0.96945
   D31       -3.09632   0.00520   0.03777   0.00000   0.03823  -3.05808
   D32       -3.04567  -0.00402  -0.02019   0.00000  -0.01939  -3.06506
   D33        1.15355   0.00038   0.00067   0.00000   0.00025   1.15380
   D34       -0.94102   0.00125   0.00033   0.00000  -0.00005  -0.94107
   D35        2.07442  -0.00822  -0.03994   0.00000  -0.03956   2.03486
   D36       -1.06423  -0.00783  -0.03389   0.00000  -0.03336  -1.09760
   D37       -2.09264   0.00013   0.00351   0.00000   0.00358  -2.08906
   D38        1.05189   0.00053   0.00956   0.00000   0.00978   1.06167
   D39       -0.00022   0.00106  -0.00045   0.00000  -0.00036  -0.00058
   D40       -3.13888   0.00145   0.00560   0.00000   0.00584  -3.13304
   D41       -3.13884   0.00013   0.00457   0.00000   0.00442  -3.13442
   D42       -0.00077  -0.00027   0.00028   0.00000   0.00026  -0.00051
   D43       -0.00016  -0.00024  -0.00145   0.00000  -0.00165  -0.00181
   D44        3.13791  -0.00064  -0.00574   0.00000  -0.00581   3.13210
   D45        0.70811   0.00338   0.00356   0.00000   0.00079   0.70890
   D46        3.13880  -0.00064  -0.00630   0.00000  -0.00626   3.13254
   D47       -0.01717  -0.00944  -0.03415   0.00000  -0.03208  -0.04925
   D48       -2.43056   0.00377   0.00960   0.00000   0.00693  -2.42363
   D49        0.00013  -0.00025  -0.00026   0.00000  -0.00012   0.00001
   D50        3.12735  -0.00905  -0.02811   0.00000  -0.02594   3.10141
   D51       -0.00015   0.00038   0.00169   0.00000   0.00180   0.00166
   D52        3.14059   0.00000  -0.00067   0.00000  -0.00058   3.14001
   D53       -3.13822   0.00078   0.00597   0.00000   0.00593  -3.13228
   D54        0.00252   0.00039   0.00361   0.00000   0.00355   0.00607
   D55        2.28155  -0.01113  -0.03247   0.00000  -0.03026   2.25129
   D56       -0.86043  -0.01110  -0.03368   0.00000  -0.03136  -0.89179
   D57        0.00021   0.00061   0.00173   0.00000   0.00176   0.00197
   D58        3.14141   0.00064   0.00051   0.00000   0.00066  -3.14111
   D59       -3.12720   0.00913   0.02919   0.00000   0.02621  -3.10099
   D60        0.01400   0.00916   0.02798   0.00000   0.02511   0.03911
   D61        0.00048  -0.00002  -0.00023   0.00000  -0.00014   0.00034
   D62        3.14129  -0.00030  -0.00072   0.00000  -0.00079   3.14050
   D63       -3.14025   0.00036   0.00214   0.00000   0.00224  -3.13801
   D64        0.00056   0.00008   0.00165   0.00000   0.00159   0.00215
   D65       -0.00051  -0.00048  -0.00148   0.00000  -0.00164  -0.00215
   D66       -3.14132  -0.00020  -0.00099   0.00000  -0.00099   3.14087
   D67        3.14147  -0.00051  -0.00027   0.00000  -0.00054   3.14092
   D68        0.00065  -0.00023   0.00023   0.00000   0.00011   0.00076
         Item               Value     Threshold  Converged?
 Maximum Force            0.111718     0.000450     NO 
 RMS     Force            0.013915     0.000300     NO 
 Maximum Displacement     0.323748     0.001800     NO 
 RMS     Displacement     0.080368     0.001200     NO 
 Predicted change in Energy=-5.076220D-02
 GradGradGradGradGradGradGradGradGradGradGradGradGradGradGradGradGradGrad

                          Input orientation:                          
 ---------------------------------------------------------------------
 Center     Atomic      Atomic             Coordinates (Angstroms)
 Number     Number       Type             X           Y           Z
 ---------------------------------------------------------------------
      1          6           0        1.074991   -0.798541    1.891242
      2          8           0        2.269211   -0.946586    2.034905
      3          8           0        0.138554   -1.850392    2.192351
      4          1           0        0.586598   -2.676509    2.681188
      5          6           0        0.308090    0.398694    1.263577
      6          1           0       -0.363787    0.860246    2.046677
      7          7           0        1.272221    1.431849    0.817028
      8          1           0        1.899310    1.071420    0.102212
      9          1           0        1.844796    1.742126    1.599027
     10          6           0       -0.627246   -0.083211    0.080376
     11          1           0       -0.024622   -0.545097   -0.729005
     12          8           0       -1.232793    1.117225   -0.417871
     13          1           0       -1.883897    0.911307   -1.110582
     14          6           0       -1.726998   -1.079679    0.542617
     15          6           0       -3.082719   -0.728964    0.433611
     16          6           0       -1.378605   -2.350386    1.090330
     17          6           0       -4.081375   -1.614999    0.854692
     18          1           0       -3.363853    0.244640    0.024259
     19          6           0       -2.399567   -3.231719    1.512465
     20          1           0       -0.229668   -2.723821    1.171239
     21          6           0       -3.742455   -2.863246    1.392603
     22          1           0       -5.129840   -1.329601    0.765815
[...]
 .00030100,-0.09231371,0.09133275,0.00631440,0.02795972,0.03737839,-0.0
 0707416,0.58395066,0.00002676,-0.00076843,-0.00046661,-0.00027679,0.00
 041654,0.00008211,-0.00015522,0.00017293,0.00007713,0.00001453,-0.0000
 7023,-0.00000926,-0.00014061,-0.00012500,0.00052071,0.00008712,-0.0000
 0674,-0.00001363,-0.00026699,-0.00014857,-0.00008078,0.00005865,0.0000
 1161,-0.00001778,0.00008901,0.00000572,0.00003309,-0.01542976,-0.03790
 189,0.00550444,-0.00082500,-0.00094101,0.00066445,-0.00161457,-0.00039
 058,0.00048615,-0.00007246,0.00007053,-0.00034416,-0.02694596,-0.30710
 812,0.01508197,0.13850600,-0.02436055,-0.04179377,0.01687045,0.6435513
 6,0.00006417,0.00068016,-0.00042722,-0.00036960,-0.00036264,0.00018568
 ,-0.00015197,-0.00041461,0.00007673,0.00011579,0.00014226,0.00011568,-
 0.00037462,-0.00022625,-0.00046747,0.00001851,0.00001909,-0.00002695,0
 .00019662,0.00006458,0.00019484,-0.00005048,-0.00002443,-0.00003678,-0
 .00004842,-0.00001763,-0.00006479,0.00241616,0.00770514,0.00387029,0.0
 0070520,0.00067279,-0.00025806,0.00022856,0.00140214,-0.00045056,0.000
 20015,-0.00004248,0.00002192,0.00966161,-0.02132359,-0.06660113,-0.010
 00009,-0.01088765,0.00943207,-0.13459931,-0.01839159,0.18366368,0.0000
 5327,0.00003282,0.00018119,-0.00010271,0.00000995,-0.00008359,-0.00009
 871,0.00002980,-0.00015099,0.00005987,-0.00001861,0.00004987,0.0002376
 2,0.00014694,-0.00004637,0.00005766,0.00003123,0.00003394,-0.00000311,
 -0.00001796,-0.00002105,0.00001156,0.00005273,0.00003673,0.00004565,0.
 00000349,0.00002673,-0.00178388,0.00141956,0.00212355,-0.00053150,-0.0
 0050856,0.00009122,0.00006654,-0.00030278,0.00016339,0.00003496,0.0001
 1973,-0.00022857,-0.08121280,0.02975338,0.02579625,-0.22671101,-0.1663
 3990,0.05334131,-0.02305432,-0.03833367,0.00700819,0.57970478,0.000254
 33,-0.00069164,-0.00026224,-0.00006186,0.00041885,0.00013019,-0.000087
 68,0.00020648,0.00011938,-0.00003339,-0.00006928,-0.00003321,-0.000059
 17,0.00000341,-0.00016526,0.00014703,-0.00001716,-0.00000314,-0.000059
 59,0.00005359,-0.00000719,0.00004624,-0.00001593,-0.00003236,0.0000519
 7,-0.00001498,0.00002313,0.00264825,-0.00041317,-0.00046307,0.00009377
 ,-0.00002360,-0.00014542,-0.00071583,0.00024166,0.00020727,0.00027467,
 0.00003730,-0.00029205,-0.07354142,0.09703817,0.02092208,-0.04050681,-
 0.17618546,0.01456253,-0.03738716,-0.09963890,0.01392095,0.01232169,0.
 64732284,0.00007697,0.00004976,-0.00033408,-0.00002672,0.00002259,0.00
 010724,-0.00005430,-0.00010327,0.00021108,0.00000912,0.00003774,-0.000
 01423,0.00035841,0.00036789,-0.00018944,0.00005162,-0.00001865,-0.0000
 8550,0.00019879,0.00017424,0.00018891,-0.00000919,-0.00002801,-0.00001
 716,-0.00003996,-0.00000903,-0.00001597,0.00189493,-0.00011650,0.00464
 043,-0.00023762,-0.00006148,-0.00002446,-0.00013420,-0.00051238,0.0002
 3415,-0.00016721,-0.00004888,-0.00003182,0.02864577,-0.01091246,-0.003
 16200,0.05041088,0.05324720,-0.08159855,0.00661552,0.01363521,-0.00572
 493,-0.13500213,-0.01422397,0.18407465,-0.00015753,0.00029027,-0.00002
 493,0.00010958,-0.00020968,-0.00000953,0.00009724,-0.00012826,0.000090
 53,-0.00002941,0.00004168,-0.00002557,-0.00010978,-0.00008327,0.000033
 29,-0.00035582,-0.00002091,-0.00018516,0.00010791,-0.00002706,-0.00000
 755,-0.00006000,-0.00003562,-0.00000084,-0.00005026,0.00001885,-0.0000
 2075,-0.00177464,0.00110659,0.00002466,0.00008061,0.00010728,-0.000033
 72,0.00032556,-0.00019911,-0.00056304,-0.00009122,-0.00005048,0.000903
 99,-0.01080776,0.02951605,0.00481180,-0.03674580,0.02105074,-0.0019667
 8,-0.00224391,0.00065100,0.00227018,-0.00147744,-0.02478836,0.00258353
 ,0.05476402,0.00011914,0.00020336,0.00023817,-0.00001642,-0.00020452,-
 0.00008072,-0.00005589,-0.00012959,-0.00016443,0.00007086,0.00004445,0
 .00004325,0.00028640,-0.00000698,0.00005804,-0.00022214,0.00029337,0.0
 0005166,-0.00015435,-0.00039726,-0.00007818,-0.00013294,0.00013742,0.0
 0007913,-0.00001118,0.00002343,0.00000401,0.00025515,0.00159127,-0.000
 86411,-0.00003338,-0.00019576,-0.00001162,0.00151970,-0.00110322,-0.00
 020466,-0.00029657,0.00042346,0.00021348,0.01628003,-0.02139782,-0.004
 49922,0.01981761,-0.21554200,-0.00389817,0.00100715,0.00022575,-0.0002
 2171,-0.01092536,-0.03069774,0.00400522,-0.02525816,0.26751796,-0.0002
 5893,0.00005842,0.00032201,0.00011623,-0.00011114,-0.00012627,0.000126
 20,0.00004496,-0.00017729,-0.00001475,-0.00001000,-0.00002155,-0.00002
 221,-0.00007092,-0.00001167,-0.00032990,0.00000937,0.00012301,-0.00007
 840,-0.00008708,-0.00018295,0.00003315,0.00000810,0.00006730,0.0000290
 0,0.00001972,0.00003548,0.00039575,-0.00090928,-0.00098932,0.00005808,
 0.00004345,-0.00000830,-0.00073489,0.00053937,-0.00046857,0.00089522,0
 .00010636,-0.00076465,0.00502227,-0.00850930,0.00445248,-0.00199163,-0
 .00449777,-0.04115391,0.00223754,-0.00013178,0.00451754,0.00235622,0.0
 0816331,0.00484599,-0.00930431,0.00457535,0.02714781,-0.00002671,0.000
 57029,0.00060662,-0.00005052,-0.00037141,-0.00022261,0.00001198,-0.000
 10217,-0.00035371,0.00008902,0.00002099,0.00009524,0.00010993,0.000005
 44,-0.00027908,-0.00011632,0.00004531,0.00002956,0.00000601,-0.0000668
 7,0.00004267,-0.00002056,0.00003866,0.00004623,-0.00002013,0.00000872,
 -0.00001227,0.00145203,0.00236000,0.00115124,0.00002634,0.00028344,0.0
 0001887,0.00040905,-0.00060892,0.00008374,-0.00026312,-0.00004039,0.00
 006083,0.06421369,-0.11895976,-0.01538605,-0.10606207,-0.01205155,0.03
 154766,-0.22593734,-0.04048858,0.05013058,0.03010642,0.14235015,-0.010
 19542,0.00027783,-0.00041876,0.00002038,0.61037064,0.00019440,-0.00014
 885,0.00006685,-0.00014343,0.00021722,0.00000509,-0.00012716,0.0000789
 1,-0.00008441,0.00006186,-0.00004643,0.00004023,-0.00012823,0.00008336
 ,0.00009101,0.00006756,-0.00001130,0.00003240,-0.00010625,-0.00001779,
 -0.00007009,0.00003962,0.00002813,0.00003554,0.00005627,-0.00000813,0.
 00002417,0.00055555,-0.00241494,0.00009412,0.00008896,-0.00005488,-0.0
 0007258,-0.00046774,-0.00101613,0.00053866,0.00001310,0.00006024,-0.00
 021781,-0.01512438,-0.06188729,0.00599909,-0.01247215,-0.00932244,0.00
 423342,-0.16626494,-0.17707553,0.05357335,0.03860998,-0.02357713,-0.01
 124822,-0.00002886,0.00052691,0.00000956,0.00240815,0.61365654,0.00006
 846,0.00001393,-0.00052471,-0.00003606,0.00005876,0.00018631,-0.000071
 29,-0.00017489,0.00030432,0.00001543,0.00010108,-0.00002844,0.00049894
 ,0.00036310,-0.00006648,0.00006615,-0.00002173,-0.00005667,0.00020812,
 0.00018208,0.00014409,0.00000464,-0.00003024,-0.00001088,-0.00001641,-
 0.00001202,-0.00000218,0.00149347,0.00002853,0.00458433,-0.00029532,-0
 .00008780,0.00000853,-0.00037219,-0.00061144,0.00034904,-0.00006058,-0
 .00005370,-0.00014011,-0.01787328,0.03811195,0.01006656,0.03197246,0.0
 0380410,-0.01316500,0.05305388,0.01502215,-0.08183507,-0.00831970,-0.0
 4312231,0.00973767,-0.00007380,0.00013265,0.00005201,-0.14285281,-0.01
 275490,0.18621980,0.00129511,-0.00193397,-0.00171550,-0.00007641,0.001
 78560,0.00110649,-0.00039893,0.00015086,0.00089416,-0.00003963,0.00002
 142,-0.00015384,-0.00015789,0.00003657,0.00034388,0.00009412,0.0000202
 4,-0.00002926,-0.00031633,0.00000006,-0.00014128,0.00005686,-0.0000201
 7,-0.00001400,0.00008668,-0.00005840,0.00004624,0.00098525,0.00015016,
 -0.00057321,0.00016964,-0.00023028,-0.00004034,-0.00049310,-0.00017872
 ,0.00016828,0.00016985,0.00011811,-0.00016579,-0.00639638,0.01445111,0
 .00328461,0.00076943,0.00012151,0.00120915,-0.17705098,0.06490463,0.03
 874786,0.00039147,-0.00044157,-0.00006805,0.00000149,0.00017125,-0.000
 06552,-0.03532519,-0.00058851,0.01243386,0.21827447,-0.00036836,0.0001
 8879,-0.00051160,0.00028266,-0.00029388,0.00018982,0.00012076,-0.00018
 865,0.00019957,-0.00007691,0.00010470,-0.00002244,-0.00009287,-0.00008
 342,-0.00000490,0.00003578,-0.00002564,-0.00001246,0.00018089,0.000121
 16,0.00006796,-0.00001778,-0.00003943,-0.00003215,-0.00006194,-0.00000
 616,-0.00002476,0.00041582,-0.00239397,0.00008826,-0.00047651,-0.00052
 167,0.00043529,-0.00016656,0.00037393,-0.00027504,0.00009211,0.0000269
 9,0.00008481,0.02782747,-0.02617555,-0.00759847,-0.00030992,-0.0030011
 7,0.00030162,0.06532685,-0.06347244,-0.01887242,-0.00004352,0.00042334
 ,0.00000503,0.00042269,-0.00017530,-0.00014796,-0.01415976,0.00594943,
 0.00428525,-0.07652289,0.09013328,-0.00033458,-0.00061270,0.00008952,0
 .00034764,0.00032261,-0.00016895,0.00013897,0.00025031,0.00002935,-0.0
 0011035,-0.00009432,-0.00011413,-0.00005669,-0.00016457,0.00001500,-0.
 00003414,-0.00005111,-0.00000554,-0.00000858,0.00004128,-0.00011552,0.
 00001897,-0.00000782,0.00000619,-0.00001367,0.00002762,0.00004115,-0.0
 0064079,-0.00018980,-0.00085372,0.00015441,0.00022781,0.00014152,0.000
 05359,0.00019072,-0.00033665,0.00001324,0.00010450,0.00014329,0.002924
 30,-0.00357008,0.00492651,0.00125283,0.00013356,0.00483082,0.03884472,
 -0.01851022,-0.05316449,-0.00005397,0.00024523,0.00005135,-0.00008780,
 -0.00003621,-0.00019763,0.01273093,0.00009119,0.00197834,-0.05685569,0
 .02099043,0.04021610,0.00021518,-0.00039863,0.00010528,-0.00008570,0.0
 0017346,-0.00001983,-0.00009784,0.00012582,-0.00011659,0.00004130,-0.0
 0003983,0.00001955,0.00019137,0.00010100,0.00006695,-0.00002649,0.0000
 5654,0.00003644,-0.00023414,-0.00018000,-0.00008742,0.00002107,0.00005
 536,0.00001779,0.00007342,0.00000724,0.00003140,0.00030305,0.00026585,
 -0.00040791,0.00001435,-0.00016560,-0.00009510,-0.00003413,-0.00001385
 ,0.00031033,-0.00002283,0.00003537,-0.00021017,-0.04364976,0.05004891,
 0.01134293,0.06679010,-0.01589525,-0.01838577,-0.08252835,-0.07300121,
 0.02903695,-0.09773878,-0.03828016,0.01061889,-0.00163103,-0.00129753,
 0.00219874,-0.26610365,0.14141326,0.05753646,-0.00114778,-0.00132446,0
 .00218798,0.58615763,0.00015805,-0.00005771,0.00035587,-0.00009294,0.0
 0001759,-0.00011307,-0.00005460,0.00008768,-0.00024315,0.00005778,-0.0
 0005552,0.00005184,0.00004006,0.00003161,0.00006104,-0.00005926,0.0000
 3518,0.00002083,-0.00020818,-0.00013721,-0.00005340,0.00001182,0.00004
 062,0.00003238,0.00003175,-0.00000055,0.00000823,0.00027965,0.00074468
 ,-0.00020349,0.00015729,0.00010888,-0.00003730,0.00012688,-0.00029368,
 0.00016133,-0.00013325,-0.00002494,-0.00002588,0.04980832,-0.07797101,
 -0.01367288,-0.11923135,-0.06336444,0.03771328,0.02993227,0.09953565,-
 0.01155625,0.08990518,-0.31604991,-0.02199722,-0.00111628,-0.00093198,
 0.00056250,0.01347778,-0.13218593,-0.00216287,-0.00143195,-0.00149153,
 0.00054270,-0.02120832,0.63918195,0.00000166,0.00007766,-0.00023524,0.
 00000539,-0.00000078,0.00007848,-0.00001631,-0.00010115,0.00016666,0.0
 0000485,0.00004459,-0.00002277,-0.00006118,-0.00002075,-0.00002393,-0.
 00000288,-0.00001244,-0.00002379,0.00007316,0.00004554,0.00003802,-0.0
 0000906,-0.00001337,-0.00000849,-0.00002034,-0.00000112,-0.00001414,-0
 .00002422,-0.00004036,0.00017864,-0.00000183,0.00005156,0.00002965,-0.
 00001025,-0.00001245,-0.00006717,0.00000353,-0.00001008,0.00002253,0.0
 1096562,-0.01373792,-0.00704315,-0.01593680,0.00644190,0.01098654,0.02
 658136,0.02024691,-0.00248084,0.00792468,0.01698807,-0.06863034,0.0022
 6302,0.00048282,0.00483493,0.06052194,-0.04152024,-0.08331315,0.002030
 65,0.00061969,0.00486483,-0.13489060,-0.00454155,0.18430586,-0.0001476
 1,-0.00004589,-0.00019484,0.00011184,0.00003653,0.00006596,0.00010583,
 0.00000369,0.00017961,-0.00007467,0.00000584,-0.00006620,-0.00005811,-
 0.00006774,0.00001082,-0.00003251,-0.00004209,-0.00001661,0.00012532,0
 .00011841,0.00002638,-0.00001107,-0.00005354,-0.00002747,-0.00003992,-
 0.00000481,-0.00001229,-0.00035322,-0.00011398,0.00016382,-0.00004755,
 -0.00001189,0.00002817,0.00004030,0.00027884,-0.00025790,0.00000883,-0
 .00005125,0.00014512,-0.00109907,-0.00177206,0.00211599,-0.03550379,-0
 .00058679,0.01265214,0.00060619,-0.00001215,-0.00017969,-0.17774669,0.
 06452744,0.04084539,-0.00023540,-0.00064051,-0.00030613,0.00054499,0.0
 0022481,0.00152973,-0.00028158,0.00007856,-0.00018796,-0.00664414,0.01
 433687,0.00348929,0.22005263,0.00003347,0.00002791,0.00016770,-0.00003
 566,-0.00003025,-0.00005832,-0.00003197,0.00000744,-0.00012780,0.00003
 385,-0.00000337,0.00002675,0.00007403,0.00003031,0.00001962,-0.0000194
 3,0.00004239,0.00004111,-0.00007831,-0.00009052,-0.00004134,-0.0000011
 9,0.00004120,0.00002717,0.00002152,0.00000424,0.00001176,-0.00037052,0
 .00034440,-0.00000626,-0.00004955,-0.00008821,0.00000552,0.00005251,-0
 .00019950,0.00014537,-0.00002986,0.00006084,-0.00009796,-0.00120545,-0
 .00113604,0.00044106,-0.01446160,0.00569388,0.00456006,-0.00024717,0.0
 0008666,0.00007768,0.06458487,-0.06343046,-0.01962109,-0.00089826,0.00
 035777,0.00024352,0.00004849,-0.00317492,0.00017303,0.00008197,-0.0000
 3545,-0.00004099,0.02813465,-0.02592865,-0.00804872,-0.07639533,0.0883
 0477,-0.00006188,0.00004599,0.00027784,0.00002206,-0.00007025,-0.00009
 771,0.00003775,0.00004957,-0.00018962,0.00000458,-0.00002045,0.0000229
 3,0.00003149,-0.00000307,-0.00001829,-0.00004302,0.00001077,0.00004818
 ,-0.00005404,-0.00004447,-0.00005386,0.00000963,0.00001366,0.00002259,
 0.00001285,0.00000461,0.00001443,0.00008604,-0.00009298,-0.00026921,0.
 00002179,0.00001383,-0.00001499,-0.00011093,-0.00000315,-0.00005295,0.
 00010921,0.00004387,0.00000020,0.00200109,0.00079451,0.00493871,0.0130
 6217,0.00020670,0.00147096,-0.00017922,-0.00006064,0.00013632,0.040772
 51,-0.01972435,-0.05415846,-0.00030688,0.00016742,-0.00117109,0.001570
 56,0.00012067,0.00495350,-0.00016842,-0.00005177,-0.00081378,0.0031907
 9,-0.00366366,0.00479068,-0.05930062,0.02234571,0.04152965,0.00009587,
 -0.00021155,0.00006383,-0.00004320,0.00017142,-0.00001823,-0.00002778,
 0.00010832,-0.00003253,-0.00000050,-0.00005726,-0.00000976,-0.00000116
 ,0.00001672,0.00004748,0.00000203,0.00000025,0.00000825,-0.00006548,-0
 .00001743,-0.00004085,0.00001203,0.00000525,0.00000819,0.00002105,-0.0
 0000304,0.00001349,0.00004440,-0.00029038,-0.00011456,0.00003471,-0.00
 002887,-0.00002958,-0.00005284,-0.00018879,0.00010238,-0.00000812,0.00
 001371,-0.00003731,-0.00137798,-0.00111591,0.00212881,0.00004869,-0.00
 007601,0.00001718,-0.00154304,-0.02493933,0.00280419,-0.00214938,0.000
 88942,0.00230290,-0.00007754,0.00001791,-0.00023947,-0.03742946,0.0215
 8092,-0.00197731,-0.00021843,-0.00094270,-0.00029473,-0.01102251,0.029
 48581,0.00433239,-0.00003117,0.00044418,-0.00010402,0.05432460,-0.0002
 7819,0.00017331,-0.00020425,0.00019277,-0.00015504,0.00006492,0.000152
 82,-0.00010864,0.00018929,-0.00008238,0.00007659,-0.00006860,-0.000052
 60,-0.00008254,-0.00002588,-0.00005447,-0.00002589,-0.00001029,0.00017
 788,0.00009311,0.00004998,-0.00002930,-0.00003908,-0.00002363,-0.00006
 334,0.00000330,-0.00002331,-0.00002403,-0.00042892,0.00009513,-0.00000
 899,0.00005341,0.00003019,0.00012518,0.00017042,-0.00019718,-0.0000878
 8,-0.00005097,0.00015731,-0.00170816,-0.00073819,0.00073584,0.00015012
 ,0.00067300,-0.00011355,-0.01106000,-0.03137358,0.00432872,0.00104608,
 -0.00026706,-0.00015428,0.00001161,-0.00025948,-0.00001755,0.02160268,
 -0.21655753,-0.00195039,-0.00067055,0.00035185,0.00015234,0.01565274,-
 0.02118924,-0.00410830,0.00015371,-0.00018503,-0.00005680,-0.02556319,
 0.26920549,-0.00009714,-0.00008892,0.00021416,0.00006468,0.00001138,-0
 .00009756,0.00005951,0.00012997,-0.00012125,-0.00003780,-0.00007156,-0
 .00000315,0.00000303,-0.00002870,0.00000779,-0.00000214,-0.00000918,0.
 00000798,-0.00001392,0.00000859,-0.00003418,0.00000625,-0.00000467,0.0
 0000271,-0.00000086,0.00000302,0.00001247,-0.00009416,0.00008233,-0.00
 021990,0.00000757,0.00002293,0.00002461,-0.00000941,0.00006123,-0.0001
 0110,0.00002331,0.00002342,0.00005080,0.00220126,0.00042274,0.00488038
 ,-0.00007398,0.00000307,0.00009003,0.00255115,0.00871086,0.00453251,0.
 00232032,-0.00008100,0.00471651,-0.00024529,-0.00001456,-0.00079396,-0
 .00211877,-0.00197762,-0.04123074,-0.00028948,0.00023470,-0.00118229,0
 .00476985,-0.00837561,0.00446461,-0.00010470,-0.00013138,-0.00032336,-
 0.00870275,0.00132480,0.02625500,-0.00021237,0.00014002,-0.00017660,0.
 00011821,-0.00007269,0.00004207,0.00011290,-0.00005592,0.00016866,-0.0
 0006846,0.00002594,-0.00005429,-0.00010156,-0.00007927,-0.00001791,-0.
 00000113,-0.00004563,-0.00002342,0.00018107,0.00013444,0.00005014,-0.0
 0001796,-0.00005107,-0.00002732,-0.00005417,-0.00000211,-0.00001930,-0
 .00026035,-0.00044030,-0.00001780,-0.00001977,0.00006124,0.00004972,0.
 00000552,0.00024448,-0.00025498,0.00002501,-0.00003675,0.00014896,0.00
 053026,0.00038782,-0.00014968,0.00039309,0.00057527,0.00161136,-0.0018
 4193,0.00129255,0.00217251,0.00183859,-0.00764580,0.00132243,0.0000826
 7,-0.00008209,-0.00014407,-0.03626114,-0.00986274,0.01306797,-0.000391
 81,-0.00021981,0.00000958,-0.14284163,-0.08427073,0.03277827,0.0007107
 2,0.00031496,-0.00060423,-0.00053534,0.00041698,-0.00021668,0.17860952
 ,-0.00015320,0.00011661,-0.00019568,0.00009360,-0.00005341,0.00005939,
 0.00008026,-0.00007237,0.00016605,-0.00005033,0.00003967,-0.00004712,-
 0.00006705,-0.00004580,-0.00001621,0.00000471,-0.00003479,-0.00001855,
 0.00015034,0.00010661,0.00004757,-0.00001463,-0.00003803,-0.00002162,-
 0.00004385,-0.00000187,-0.00001668,-0.00015380,-0.00032509,0.00015603,
 -0.00002732,0.00003808,0.00004042,-0.00001817,0.00017648,-0.00017151,0
 .00001538,-0.00003147,0.00009666,0.00036561,0.00033594,-0.00015404,0.0
 0066176,-0.00305520,0.00001253,0.00125639,-0.00069752,-0.00024544,-0.0
 2157829,-0.03465469,0.00750964,-0.00037256,-0.00030309,0.00010903,0.00
 404915,0.00689855,-0.00129492,0.00006334,0.00023072,-0.00004231,-0.084
 26595,-0.10010057,0.02717119,0.00003305,-0.00069920,-0.00002530,0.0007
 0055,0.00066132,-0.00025539,0.09927182,0.13150909,-0.00000110,-0.00007
 395,0.00025885,0.00000210,0.00000765,-0.00008600,0.00001464,0.00010251
 ,-0.00018021,-0.00000074,-0.00004852,0.00002467,-0.00002847,-0.0000462
 1,0.00002277,-0.00001663,0.00001229,0.00003034,-0.00009764,-0.00006485
 ,-0.00006421,0.00001053,0.00001620,0.00001411,0.00002180,0.00000299,0.
 00001481,-0.00019938,0.00001897,-0.00082451,0.00006209,-0.00000596,-0.
 00001555,-0.00000816,0.00004878,-0.00001761,0.00004229,0.00003059,-0.0
 0000346,-0.00008875,-0.00006016,0.00029368,0.00152588,-0.00001790,0.00
 496521,0.00222513,-0.00024629,0.00479268,0.00168175,0.00327302,0.00518
 253,-0.00012584,0.00002210,-0.00033472,0.01276498,0.00299117,0.0017932
 3,0.00001430,0.00005166,-0.00038474,0.03274405,0.02713617,-0.05289497,
 -0.00059948,-0.00011172,-0.00104580,-0.00022856,-0.00017455,-0.0011551
 8,-0.04971625,-0.03286400,0.03961144||-0.00001701,0.00002135,-0.000013
 29,0.00000822,-0.00001244,-0.00000169,0.00000565,-0.00000592,0.0000008
 2,-0.00000227,-0.00000215,0.00001204,0.00001947,0.00000158,0.00001753,
 -0.00000313,0.00000077,0.00000041,-0.00000690,0.00000448,-0.00000424,0
 .00000104,-0.00000300,0.00000145,0.00000044,-0.00000056,-0.00000033,-0
 .00000630,0.00000058,-0.00002489,-0.00000147,0.00000071,0.00000287,-0.
 00000165,-0.00000749,-0.00000130,0.00000497,0.00000294,0.00000623,-0.0
 0000789,0.00001425,0.00000338,0.00000483,0.00000106,-0.00000193,-0.000
 00197,-0.00000820,0.00001062,-0.00000138,-0.00000687,0.00000036,0.0000
 0109,-0.00000143,0.00000087,0.00000531,-0.00000339,-0.00000761,0.00000
 118,-0.00000303,-0.00000529,-0.00000124,0.00000566,0.00000258,0.000000
 28,-0.00000009,0.00000030,-0.00000019,0.00000131,0.00000437,-0.0000010
 7,-0.00000012,-0.00000325|||@


 "ANNA, YOU MUSN'T SPEAK OF OXIDIZED MURIATIC ACID
 ANYMORE, FROM NOW ON YOU MUST SAY CHLORINE."
   -- JENS JACOB BERZELIUS, IN 1820, TO HIS COOK, WHO HAD
 COMPLAINED OF THE SMELL OF THE FLASK SHE WAS CLEANING.
 Job cpu time:       0 days  0 hours  0 minutes  9.0 seconds.
 File lengths (MBytes):  RWF=     41 Int=      0 D2E=      0 Chk=      2 Scr=      1
 Normal termination of Gaussian 09 at Sun Mar 13 12:57:37 2022.
