 Entering Link 1 = C:\G09W\l1.exe PID=      3848.
  
 Copyright (c) 1988,1990,1992,1993,1995,1998,2003,2009,2013,
            Gaussian, Inc.  All Rights Reserved.
  
 This is part of the Gaussian(R) 09 program.  It is based on
 the Gaussian(R) 03 system (copyright 2003, Gaussian, Inc.),
 the Gaussian(R) 98 system (copyright 1998, Gaussian, Inc.),
 the Gaussian(R) 94 system (copyright 1995, Gaussian, Inc.),
 the Gaussian 92(TM) system (copyright 1992, Gaussian, Inc.),
 the Gaussian 90(TM) system (copyright 1990, Gaussian, Inc.),
 the Gaussian 88(TM) system (copyright 1988, Gaussian, Inc.),
 the Gaussian 86(TM) system (copyright 1986, Carnegie Mellon
 University), and the Gaussian 82(TM) system (copyright 1983,
 Carnegie Mellon University). Gaussian is a federally registered
 trademark of Gaussian, Inc.
  
 This software contains proprietary and confidential information,
 including trade secrets, belonging to Gaussian, Inc.
  
 This software is provided under written license and may be
 used, copied, transmitted, or stored only in accord with that
 written license.
  
 The following legend is applicable only to US Government
 contracts under FAR:
  
                    RESTRICTED RIGHTS LEGEND
  
 Use, reproduction and disclosure by the US Government is
 subject to restrictions as set forth in subparagraphs (a)
 and (c) of the Commercial Computer Software - Restricted
 Rights clause in FAR 52.227-19.
  
 Gaussian, Inc.
 340 Quinnipiac St., Bldg. 40, Wallingford CT 06492
  
  
 ---------------------------------------------------------------
 Warning -- This program may not be used in any manner that
 competes with the business of Gaussian, Inc. or will provide
 assistance to any competitor of Gaussian, Inc.  The licensee
 of this program is prohibited from giving any competitor of
 Gaussian, Inc. access to this program.  By using this program,
 the user acknowledges that Gaussian, Inc. is engaged in the
 business of creating and licensing software in the field of
 computational chemistry and represents and warrants to the
 licensee that it is not a competitor of Gaussian, Inc. and that
 it will not use this program in any manner prohibited above.
 ---------------------------------------------------------------
  

 Cite this work as:
 Gaussian 09, Revision D.01,
 M. J. Frisch, G. W. Trucks, H. B. Schlegel, G. E. Scuseria, 
 M. A. Robb, J. R. Cheeseman, G. Scalmani, V. Barone, B. Mennucci, 
 G. A. Petersson, H. Nakatsuji, M. Caricato, X. Li, H. P. Hratchian, 
 A. F. Izmaylov, J. Bloino, G. Zheng, J. L. Sonnenberg, M. Hada, 
 M. Ehara, K. Toyota, R. Fukuda, J. Hasegawa, M. Ishida, T. Nakajima, 
 Y. Honda, O. Kitao, H. Nakai, T. Vreven, J. A. Montgomery, Jr., 
 J. E. Peralta, F. Ogliaro, M. Bearpark, J. J. Heyd, E. Brothers, 
 K. N. Kudin, V. N. Staroverov, T. Keith, R. Kobayashi, J. Normand, 
 K. Raghavachari, A. Rendell, J. C. Burant, S. S. Iyengar, J. Tomasi, 
 M. Cossi, N. Rega, J. M. Millam, M. Klene, J. E. Knox, J. B. Cross, 
 V. Bakken, C. Adamo, J. Jaramillo, R. Gomperts, R. E. Stratmann, 
 O. Yazyev, A. J. Austin, R. Cammi, C. Pomelli, J. W. Ochterski, 
 R. L. Martin, K. Morokuma, V. G. Zakrzewski, G. A. Voth, 
 P. Salvador, J. J. Dannenberg, S. Dapprich, A. D. Daniels, 
 O. Farkas, J. B. Foresman, J. V. Ortiz, J. Cioslowski, 
 and D. J. Fox, Gaussian, Inc., Wallingford CT, 2013.
 
 ******************************************
 Gaussian 09:  IA32W-G09RevD.01 24-Apr-2013
                13-Mar-2022 
 ******************************************
 %chk=D:\mindmap\gaussian\calculate\opt_freq\gly\gly.chk
 %nprocshared=4
 Will use up to    4 processors via shared memory.
 %mem=1GB
 --------------
 # opt freq pm6
 --------------
 1/14=-1,18=20,19=15,26=1,38=1/1,3;
 2/9=110,12=2,17=6,18=5,40=1/2;
 3/5=2,16=1,25=1,41=3900000,71=1/1,2,3;
 4/35=1/1;
 5/5=2,35=1,38=5/2;
 6/7=2,8=2,9=2,10=2,28=1/1;
 7//1,2,3,16;
 1/14=-1,18=20,19=15,26=1/3(2);
 2/9=110/2;
 99//99;
 2/9=110/2;
 3/5=2,16=1,25=1,41=3900000,71=1,135=20/1,2,3;
 4/5=5,16=3,35=1/1;
 5/5=2,35=1,38=5/2;
 7//1,2,3,16;
 1/14=-1,18=20,19=15,26=1/3(-5);
 2/9=110/2;
 6/7=2,8=2,9=2,10=2,19=2,28=1/1;
 99/9=1/99;
 ------------
 opt freq(GC)
 ------------
 Symbolic Z-matrix:
 Charge =  0 Multiplicity = 1
 C                     0.9955   -1.80479  -0.54106 
 O                     1.04454  -1.8807   -1.74359 
 O                     1.10164  -2.93497   0.23468 
 H                     1.25153  -3.75981  -0.30178 
 C                     0.76928  -0.60415   0.34963 
 H                     0.63976   0.29451  -0.29746 
 H                    -0.18574  -0.72818   0.92279 
 N                     1.88947  -0.52917   1.32446 
 H                     2.77212  -0.42417   0.83232 
 H                     1.94322  -1.3843    1.877 
 

 GradGradGradGradGradGradGradGradGradGradGradGradGradGradGradGradGradGrad
 Berny optimization.
 Initialization pass.
                           ----------------------------
                           !    Initial Parameters    !
                           ! (Angstroms and Degrees)  !
 --------------------------                            --------------------------
 ! Name  Definition              Value          Derivative Info.                !
 --------------------------------------------------------------------------------
 ! R1    R(1,2)                  1.2059         estimate D2E/DX2                !
 ! R2    R(1,3)                  1.3749         estimate D2E/DX2                !
 ! R3    R(1,5)                  1.512          estimate D2E/DX2                !
 ! R4    R(3,4)                  0.9953         estimate D2E/DX2                !
 ! R5    R(5,6)                  1.1149         estimate D2E/DX2                !
 ! R6    R(5,7)                  1.1207         estimate D2E/DX2                !
 ! R7    R(5,8)                  1.4869         estimate D2E/DX2                !
 ! R8    R(8,9)                  1.016          estimate D2E/DX2                !
 ! R9    R(8,10)                 1.0195         estimate D2E/DX2                !
 ! A1    A(2,1,3)              120.5141         estimate D2E/DX2                !
 ! A2    A(2,1,5)              130.0537         estimate D2E/DX2                !
 ! A3    A(3,1,5)              109.3857         estimate D2E/DX2                !
 ! A4    A(1,3,4)              112.8764         estimate D2E/DX2                !
 ! A5    A(1,5,6)              108.393          estimate D2E/DX2                !
 ! A6    A(1,5,7)              109.9319         estimate D2E/DX2                !
 ! A7    A(1,5,8)              108.2731         estimate D2E/DX2                !
 ! A8    A(6,5,7)              106.6805         estimate D2E/DX2                !
 ! A9    A(6,5,8)              115.3014         estimate D2E/DX2                !
 ! A10   A(7,5,8)              108.1979         estimate D2E/DX2                !
 ! A11   A(5,8,9)              110.0073         estimate D2E/DX2                !
 ! A12   A(5,8,10)             110.6547         estimate D2E/DX2                !
 ! A13   A(9,8,10)             107.6614         estimate D2E/DX2                !
 ! D1    D(2,1,3,4)              2.208          estimate D2E/DX2                !
 ! D2    D(5,1,3,4)            179.9668         estimate D2E/DX2                !
 ! D3    D(2,1,5,6)              0.0            estimate D2E/DX2                !
 ! D4    D(2,1,5,7)            116.2534         estimate D2E/DX2                !
 ! D5    D(2,1,5,8)           -125.7396         estimate D2E/DX2                !
 ! D6    D(3,1,5,6)           -177.4775         estimate D2E/DX2                !
 ! D7    D(3,1,5,7)            -61.2241         estimate D2E/DX2                !
 ! D8    D(3,1,5,8)             56.7829         estimate D2E/DX2                !
 ! D9    D(1,5,8,9)             60.4135         estimate D2E/DX2                !
 ! D10   D(1,5,8,10)           -58.4232         estimate D2E/DX2                !
 ! D11   D(6,5,8,9)            -61.1633         estimate D2E/DX2                !
 ! D12   D(6,5,8,10)           180.0            estimate D2E/DX2                !
 ! D13   D(7,5,8,9)            179.5216         estimate D2E/DX2                !
 ! D14   D(7,5,8,10)            60.6848         estimate D2E/DX2                !
 --------------------------------------------------------------------------------
 Trust Radius=3.00D-01 FncErr=1.00D-07 GrdErr=1.00D-07
 Number of steps in this run=     46 maximum allowed number of steps=    100.
 GradGradGradGradGradGradGradGradGradGradGradGradGradGradGradGradGradGrad

                          Input orientation:                          
 ---------------------------------------------------------------------
 Center     Atomic      Atomic             Coordinates (Angstroms)
 Number     Number       Type             X           Y           Z
 ---------------------------------------------------------------------
      1          6           0        0.995501   -1.804793   -0.541057
      2          8           0        1.044542   -1.880699   -1.743591
      3          8           0        1.101643   -2.934971    0.234683
      4          1           0        1.251531   -3.759808   -0.301775
      5          6           0        0.769275   -0.604152    0.349634
      6          1           0        0.639763    0.294513   -0.297460
      7          1           0       -0.185745   -0.728177    0.922786
      8          7           0        1.889471   -0.529166    1.324457
      9          1           0        2.772119   -0.424170    0.832316
     10          1           0        1.943218   -1.384304    1.876996
 ---------------------------------------------------------------------
                    Distance matrix (angstroms):
                    1          2          3          4          5
     1  C    0.000000
     2  O    1.205925   0.000000
     3  O    1.374897   2.242391   0.000000
     4  H    1.986174   2.377546   0.995294   0.000000
     5  C    1.511968   2.467171   2.357202   3.258077   0.000000
     6  H    2.143123   2.643234   3.305461   4.100218   1.114945
     7  H    2.167321   3.154596   2.645901   3.571568   1.120691
     8  N    2.430339   3.457378   2.756116   3.672689   1.486856
     9  H    2.636028   3.426557   3.074374   3.837294   2.068032
    10  H    2.630961   3.763333   2.410395   3.296739   2.078368
                    6          7          8          9         10
     6  H    0.000000
     7  H    1.793420   0.000000
     8  N    2.206996   2.123079   0.000000
     9  H    2.517904   2.974821   1.016019   0.000000
    10  H    3.040671   2.423531   1.019534   1.643256   0.000000
 Stoichiometry    C2H5NO2
 Framework group  C1[X(C2H5NO2)]
 Deg. of freedom    24
 Full point group                 C1      NOp   1
 Largest Abelian subgroup         C1      NOp   1
 Largest concise Abelian subgroup C1      NOp   1
                         Standard orientation:                         
 ---------------------------------------------------------------------
 Center     Atomic      Atomic             Coordinates (Angstroms)
 Number     Number       Type             X           Y           Z
 ---------------------------------------------------------------------
      1          6           0        0.577572   -0.156853    0.052394
      2          8           0        1.527121   -0.808287   -0.305719
      3          8           0        0.672439    1.209830    0.168665
      4          1           0        1.563679    1.560269   -0.102429
      5          6           0       -0.801433   -0.602664    0.483260
      6          1           0       -0.845184   -1.715304    0.426520
      7          1           0       -0.973835   -0.328249    1.556070
      8          7           0       -1.804204    0.115862   -0.346748
      9          1           0       -1.667364   -0.107745   -1.328364
     10          1           0       -1.701183    1.124759   -0.242049
 ---------------------------------------------------------------------
 Rotational constants (GHZ):      8.9670285      4.1262525      3.2169967
 Standard basis: VSTO-6G (5D, 7F)
 There are    25 symmetry adapted cartesian basis functions of A   symmetry.
 There are    25 symmetry adapted basis functions of A   symmetry.
    25 basis functions,   150 primitive gaussians,    25 cartesian basis functions
    15 alpha electrons       15 beta electrons
       nuclear repulsion energy       125.7754324794 Hartrees.
 Integral buffers will be    262144 words long.
 Regular integral format.
 Two-electron integral symmetry is turned off.
 Do NDO integrals.
 One-electron integrals computed using PRISM.
 NBasis=    25 RedAO= F EigKep=  0.00D+00  NBF=    25
 NBsUse=    25 1.00D-04 EigRej=  0.00D+00 NBFU=    25
 Simple Huckel Guess.
 Overlap will be assumed to be unity.
 Keep J ints in memory in canonical form, NReq=884130.
 Requested convergence on RMS density matrix=1.00D-08 within 128 cycles.
 Requested convergence on MAX density matrix=1.00D-06.
 Requested convergence on             energy=1.00D-06.
 No special actions if energy rises.
 SCF Done:  E(RPM6) = -0.143250223482     A.U. after   14 cycles
            NFock= 13  Conv=0.28D-08     -V/T= 0.9914

 **********************************************************************

            Population analysis using the SCF density.

 **********************************************************************

 Orbital symmetries:
       Occupied  (A) (A) (A) (A) (A) (A) (A) (A) (A) (A) (A) (A)
                 (A) (A) (A)
       Virtual   (A) (A) (A) (A) (A) (A) (A) (A) (A) (A)
 The electronic state is 1-A.
 Alpha  occ. eigenvalues --   -1.20594  -1.16878  -1.13185  -0.94874  -0.80511
 Alpha  occ. eigenvalues --   -0.68455  -0.64035  -0.63112  -0.60914  -0.55593
 Alpha  occ. eigenvalues --   -0.52640  -0.49456  -0.46424  -0.43870  -0.36923
 Alpha virt. eigenvalues --    0.00288   0.04745   0.09527   0.09651   0.13800
 Alpha virt. eigenvalues --    0.16237   0.16994   0.18167   0.20245   0.23608
          Condensed to atoms (all electrons):
               1          2          3          4          5          6
     1  C    3.429815   0.000000   0.000000   0.000000   0.000000   0.000000
     2  O    0.000000   6.488227   0.000000   0.000000   0.000000   0.000000
     3  O    0.000000   0.000000   6.539698   0.000000   0.000000   0.000000
     4  H    0.000000   0.000000   0.000000   0.655993   0.000000   0.000000
     5  C    0.000000   0.000000   0.000000   0.000000   4.235457   0.000000
     6  H    0.000000   0.000000   0.000000   0.000000   0.000000   0.810563
     7  H    0.000000   0.000000   0.000000   0.000000   0.000000   0.000000
     8  N    0.000000   0.000000   0.000000   0.000000   0.000000   0.000000
     9  H    0.000000   0.000000   0.000000   0.000000   0.000000   0.000000
    10  H    0.000000   0.000000   0.000000   0.000000   0.000000   0.000000
               7          8          9         10
     1  C    0.000000   0.000000   0.000000   0.000000
     2  O    0.000000   0.000000   0.000000   0.000000
     3  O    0.000000   0.000000   0.000000   0.000000
     4  H    0.000000   0.000000   0.000000   0.000000
     5  C    0.000000   0.000000   0.000000   0.000000
     6  H    0.000000   0.000000   0.000000   0.000000
     7  H    0.808886   0.000000   0.000000   0.000000
     8  N    0.000000   5.472787   0.000000   0.000000
     9  H    0.000000   0.000000   0.787468   0.000000
    10  H    0.000000   0.000000   0.000000   0.771106
 Mulliken charges:
               1
     1  C    0.570185
     2  O   -0.488227
     3  O   -0.539698
     4  H    0.344007
     5  C   -0.235457
     6  H    0.189437
     7  H    0.191114
     8  N   -0.472787
     9  H    0.212532
    10  H    0.228894
 Sum of Mulliken charges =   0.00000
 Mulliken charges with hydrogens summed into heavy atoms:
               1
     1  C    0.570185
     2  O   -0.488227
     3  O   -0.195692
     5  C    0.145094
     8  N   -0.031361
 Charge=              0.0000 electrons
 Dipole moment (field-independent basis, Debye):
    X=              0.0937    Y=              1.2855    Z=              0.0263  Tot=              1.2892
 N-N= 1.257754324794D+02 E-N=-2.139010350534D+02  KE=-1.658706494238D+01
 Calling FoFJK, ICntrl=      2127 FMM=F ISym2X=0 I1Cent= 0 IOpClX= 0 NMat=1 NMatS=1 NMatT=0.
 ***** Axes restored to original set *****
 -------------------------------------------------------------------
 Center     Atomic                   Forces (Hartrees/Bohr)
 Number     Number              X              Y              Z
 -------------------------------------------------------------------
      1        6          -0.013189062   -0.003260055   -0.010443465
      2        8           0.002774282   -0.000934842    0.000910259
      3        8           0.002584527   -0.003788805   -0.000793085
      4        1          -0.000128456   -0.000268421    0.000351678
      5        6           0.005804741   -0.009414853    0.007327585
      6        1           0.005269206    0.002491271    0.005698411
      7        1           0.000160904    0.001419599   -0.001433581
      8        7          -0.002874768    0.012128876   -0.002856656
      9        1           0.001024469    0.001250555    0.001501076
     10        1          -0.001425844    0.000376675   -0.000262221
 -------------------------------------------------------------------
 Cartesian Forces:  Max     0.013189062 RMS     0.004973705

 GradGradGradGradGradGradGradGradGradGradGradGradGradGradGradGradGradGrad
 Berny optimization.
 FormGI is forming the generalized inverse of G from B-inverse, IUseBI=4.
 Internal  Forces:  Max     0.021348214 RMS     0.005273927
 Search for a local minimum.
 Step number   1 out of a maximum of   46
 All quantities printed in internal units (Hartrees-Bohrs-Radians)
 Mixed Optimization -- RFO/linear search
 Second derivative matrix not updated -- first step.
 ITU=  0
     Eigenvalues ---    0.00543   0.00608   0.00908   0.02024   0.03997
     Eigenvalues ---    0.05238   0.06516   0.09326   0.12861   0.16000
     Eigenvalues ---    0.16000   0.16000   0.21859   0.24985   0.25000
     Eigenvalues ---    0.31153   0.31494   0.32082   0.33796   0.44413
     Eigenvalues ---    0.44979   0.48525   0.50047   1.01901
 RFO step:  Lambda=-5.95192632D-03 EMin= 5.42837680D-03
 Linear search not attempted -- first point.
 Iteration  1 RMS(Cart)=  0.06886952 RMS(Int)=  0.00226677
 Iteration  2 RMS(Cart)=  0.00256890 RMS(Int)=  0.00144518
 Iteration  3 RMS(Cart)=  0.00000150 RMS(Int)=  0.00144518
 Iteration  4 RMS(Cart)=  0.00000000 RMS(Int)=  0.00144518
 Variable       Old X    -DE/DX   Delta X   Delta X   Delta X     New X
                                 (Linear)    (Quad)   (Total)
    R1        2.27887  -0.00074   0.00000  -0.00072  -0.00072   2.27815
    R2        2.59818   0.00328   0.00000   0.00647   0.00647   2.60465
    R3        2.85721   0.01124   0.00000   0.03540   0.03540   2.89260
    R4        1.88083   0.00001   0.00000   0.00003   0.00003   1.88086
    R5        2.10694  -0.00191   0.00000  -0.00585  -0.00585   2.10109
    R6        2.11780  -0.00103   0.00000  -0.00320  -0.00320   2.11460
    R7        2.80975  -0.00284   0.00000  -0.00824  -0.00824   2.80151
    R8        1.92000   0.00029   0.00000   0.00064   0.00064   1.92064
    R9        1.92664  -0.00053   0.00000  -0.00118  -0.00118   1.92546
    A1        2.10337  -0.00329   0.00000  -0.01092  -0.01443   2.08894
    A2        2.26987  -0.00009   0.00000   0.00139  -0.00215   2.26771
    A3        1.90914   0.00347   0.00000   0.01541   0.01189   1.92103
    A4        1.97007   0.00082   0.00000   0.00497   0.00497   1.97503
    A5        1.89181  -0.00188   0.00000   0.00821   0.01079   1.90260
    A6        1.91867  -0.00581   0.00000  -0.00302  -0.00478   1.91389
    A7        1.88972   0.02135   0.00000   0.10323   0.10289   1.99262
    A8        1.86193   0.00268   0.00000  -0.01242  -0.01395   1.84797
    A9        2.01239  -0.01389   0.00000  -0.09890  -0.09946   1.91293
   A10        1.88841  -0.00299   0.00000   0.00263  -0.00010   1.88831
   A11        1.91999   0.00359   0.00000   0.02656   0.02650   1.94649
   A12        1.93129  -0.00207   0.00000  -0.00756  -0.00762   1.92367
   A13        1.87905   0.00015   0.00000   0.01058   0.01047   1.88952
    D1        0.03854  -0.00121   0.00000  -0.07550  -0.07503  -0.03649
    D2        3.14101   0.00097   0.00000   0.06617   0.06570  -3.07648
    D3        0.00000   0.00002   0.00000   0.06764   0.06846   0.06846
    D4        2.02900  -0.00103   0.00000   0.05577   0.05521   2.08422
    D5       -2.19457   0.00460   0.00000   0.11776   0.11757  -2.07700
    D6       -3.09757  -0.00235   0.00000  -0.09150  -0.09073   3.09489
    D7       -1.06856  -0.00340   0.00000  -0.10337  -0.10398  -1.17254
    D8        0.99105   0.00222   0.00000  -0.04138  -0.04163   0.94942
    D9        1.05441   0.00100   0.00000   0.01042   0.00865   1.06307
   D10       -1.01968  -0.00015   0.00000  -0.01471  -0.01654  -1.03622
   D11       -1.06750  -0.00331   0.00000  -0.01141  -0.00928  -1.07678
   D12        3.14159  -0.00446   0.00000  -0.03654  -0.03447   3.10712
   D13        3.13324   0.00435   0.00000   0.06611   0.06584  -3.08410
   D14        1.05915   0.00320   0.00000   0.04098   0.04065   1.09980
         Item               Value     Threshold  Converged?
 Maximum Force            0.021348     0.000450     NO 
 RMS     Force            0.005274     0.000300     NO 
 Maximum Displacement     0.153181     0.001800     NO 
 RMS     Displacement     0.067727     0.001200     NO 
 Predicted change in Energy=-3.207622D-03
 GradGradGradGradGradGradGradGradGradGradGradGradGradGradGradGradGradGrad

                          Input orientation:                          
 ---------------------------------------------------------------------
 Center     Atomic      Atomic             Coordinates (Angstroms)
 Number     Number       Type             X           Y           Z
 ---------------------------------------------------------------------
      1          6           0        0.928197   -1.850217   -0.561763
      2          8           0        1.023307   -1.904467   -1.762325
      3          8           0        1.089570   -2.995305    0.188234
      4          1           0        1.246755   -3.807159   -0.365683
      5          6           0        0.784335   -0.635545    0.358518
      6          1           0        0.704117    0.282582   -0.263428
      7          1           0       -0.177158   -0.705495    0.926665
      8          7           0        1.888748   -0.479788    1.335145
      9          1           0        2.783795   -0.357090    0.869505
     10          1           0        1.949653   -1.303244    1.932121
 ---------------------------------------------------------------------
                    Distance matrix (angstroms):
                    1          2          3          4          5
     1  C    0.000000
     2  O    1.205545   0.000000
     3  O    1.378319   2.235845   0.000000
     4  H    1.992373   2.370818   0.995308   0.000000
     5  C    1.530699   2.482991   2.385505   3.285945   0.000000
     6  H    2.165190   2.670535   3.331234   4.126851   1.111850
     7  H    2.178903   3.179516   2.719027   3.649385   1.118997
     8  N    2.529623   3.517530   2.877832   3.791618   1.482494
     9  H    2.778704   3.524233   3.208536   3.973808   2.082423
    10  H    2.749911   3.855972   2.577587   3.470383   2.068820
                    6          7          8          9         10
     6  H    0.000000
     7  H    1.780243   0.000000
     8  N    2.130726   2.117963   0.000000
     9  H    2.453116   2.981928   1.016358   0.000000
    10  H    2.981048   2.427256   1.018907   1.649289   0.000000
 Stoichiometry    C2H5NO2
 Framework group  C1[X(C2H5NO2)]
 Deg. of freedom    24
 Full point group                 C1      NOp   1
 Largest Abelian subgroup         C1      NOp   1
 Largest concise Abelian subgroup C1      NOp   1
                         Standard orientation:                         
 ---------------------------------------------------------------------
 Center     Atomic      Atomic             Coordinates (Angstroms)
 Number     Number       Type             X           Y           Z
 ---------------------------------------------------------------------
      1          6           0        0.610212   -0.164649    0.097444
      2          8           0        1.513300   -0.851891   -0.309334
      3          8           0        0.759618    1.204939    0.138345
      4          1           0        1.659351    1.509630   -0.158777
      5          6           0       -0.821949   -0.548342    0.477887
      6          1           0       -0.936401   -1.650964    0.392240
      7          1           0       -1.003588   -0.304369    1.554752
      8          7           0       -1.865948    0.124431   -0.331576
      9          1           0       -1.780624   -0.107549   -1.317420
     10          1           0       -1.790021    1.135793   -0.233831
 ---------------------------------------------------------------------
 Rotational constants (GHZ):      9.0263743      3.9246851      3.0894079
 Standard basis: VSTO-6G (5D, 7F)
 There are    25 symmetry adapted cartesian basis functions of A   symmetry.
 There are    25 symmetry adapted basis functions of A   symmetry.
    25 basis functions,   150 primitive gaussians,    25 cartesian basis functions
    15 alpha electrons       15 beta electrons
       nuclear repulsion energy       125.0335755779 Hartrees.
 Integral buffers will be    262144 words long.
 Regular integral format.
 Two-electron integral symmetry is turned off.
 Do NDO integrals.
 One-electron integrals computed using PRISM.
 NBasis=    25 RedAO= F EigKep=  0.00D+00  NBF=    25
 NBsUse=    25 1.00D-04 EigRej=  0.00D+00 NBFU=    25
 Initial guess from the checkpoint file:  "D:\mindmap\gaussian\calculate\opt_freq\gly\gly.chk"
 B after Tr=     0.000000    0.000000    0.000000
         Rot=    0.999866    0.008973   -0.004530    0.012900 Ang=   1.87 deg.
 Overlap will be assumed to be unity.
 Keep J ints in memory in canonical form, NReq=884130.
 Requested convergence on RMS density matrix=1.00D-08 within 128 cycles.
 Requested convergence on MAX density matrix=1.00D-06.
 Requested convergence on             energy=1.00D-06.
 No special actions if energy rises.
 SCF Done:  E(RPM6) = -0.145460128645     A.U. after   12 cycles
            NFock= 11  Conv=0.28D-08     -V/T= 0.9912
 Calling FoFJK, ICntrl=      2127 FMM=F ISym2X=0 I1Cent= 0 IOpClX= 0 NMat=1 NMatS=1 NMatT=0.
 ***** Axes restored to original set *****
 -------------------------------------------------------------------
 Center     Atomic                   Forces (Hartrees/Bohr)
 Number     Number              X              Y              Z
 -------------------------------------------------------------------
      1        6           0.008598610    0.004441977    0.003140867
      2        8          -0.004060095    0.000554906    0.000885872
      3        8          -0.002042414    0.000782997    0.000473198
      4        1          -0.000579156    0.000743913   -0.000165810
      5        6           0.002235408   -0.006019247    0.002187299
      6        1           0.000669897    0.001382283   -0.001848835
      7        1           0.000232747   -0.000893302   -0.000818694
      8        7          -0.004992549   -0.000750609   -0.003387764
      9        1          -0.000939006   -0.000781977   -0.000213309
     10        1           0.000876559    0.000539059   -0.000252823
 -------------------------------------------------------------------
 Cartesian Forces:  Max     0.008598610 RMS     0.002707855

 GradGradGradGradGradGradGradGradGradGradGradGradGradGradGradGradGradGrad
 Berny optimization.
 Using GEDIIS/GDIIS optimizer.
 FormGI is forming the generalized inverse of G from B-inverse, IUseBI=4.
 Internal  Forces:  Max     0.007602477 RMS     0.001995784
 Search for a local minimum.
 Step number   2 out of a maximum of   46
 All quantities printed in internal units (Hartrees-Bohrs-Radians)
 Mixed Optimization -- RFO/linear search
 Update second derivatives using D2CorX and points    1    2
 DE= -2.21D-03 DEPred=-3.21D-03 R= 6.89D-01
 TightC=F SS=  1.41D+00  RLast= 2.89D-01 DXNew= 5.0454D-01 8.6617D-01
 Trust test= 6.89D-01 RLast= 2.89D-01 DXMaxT set to 5.05D-01
 ITU=  1  0
 Use linear search instead of GDIIS.
     Eigenvalues ---    0.00543   0.00608   0.01306   0.02021   0.03861
     Eigenvalues ---    0.04680   0.06437   0.10135   0.12795   0.15982
     Eigenvalues ---    0.16000   0.16206   0.18946   0.24928   0.25071
     Eigenvalues ---    0.31474   0.31946   0.32550   0.36121   0.44411
     Eigenvalues ---    0.45006   0.48534   0.50199   1.01900
 RFO step:  Lambda=-1.46320239D-03 EMin= 5.43261502D-03
 Quartic linear search produced a step of -0.19893.
 Iteration  1 RMS(Cart)=  0.06412655 RMS(Int)=  0.00297853
 Iteration  2 RMS(Cart)=  0.00371801 RMS(Int)=  0.00169922
 Iteration  3 RMS(Cart)=  0.00000381 RMS(Int)=  0.00169921
 Iteration  4 RMS(Cart)=  0.00000000 RMS(Int)=  0.00169921
 Variable       Old X    -DE/DX   Delta X   Delta X   Delta X     New X
                                 (Linear)    (Quad)   (Total)
    R1        2.27815  -0.00123   0.00014  -0.00134  -0.00120   2.27695
    R2        2.60465  -0.00141  -0.00129   0.00100  -0.00029   2.60436
    R3        2.89260  -0.00760  -0.00704  -0.00179  -0.00883   2.88377
    R4        1.88086  -0.00061  -0.00001  -0.00100  -0.00100   1.87986
    R5        2.10109   0.00213   0.00116   0.00240   0.00356   2.10465
    R6        2.11460  -0.00056   0.00064  -0.00306  -0.00242   2.11218
    R7        2.80151  -0.00641   0.00164  -0.01949  -0.01785   2.78366
    R8        1.92064  -0.00082  -0.00013  -0.00116  -0.00128   1.91935
    R9        1.92546  -0.00053   0.00024  -0.00157  -0.00133   1.92412
    A1        2.08894   0.00145   0.00287   0.00407   0.00106   2.09000
    A2        2.26771  -0.00040   0.00043   0.00363  -0.00179   2.26592
    A3        1.92103  -0.00072  -0.00237   0.01011   0.00188   1.92292
    A4        1.97503  -0.00110  -0.00099  -0.00302  -0.00401   1.97103
    A5        1.90260  -0.00062  -0.00215  -0.00215  -0.00458   1.89802
    A6        1.91389  -0.00083   0.00095  -0.00737  -0.00637   1.90753
    A7        1.99262   0.00033  -0.02047   0.05165   0.03121   2.02383
    A8        1.84797   0.00057   0.00278  -0.00118   0.00187   1.84984
    A9        1.91293  -0.00003   0.01979  -0.05108  -0.03108   1.88185
   A10        1.88831   0.00061   0.00002   0.00628   0.00664   1.89494
   A11        1.94649  -0.00146  -0.00527   0.00403  -0.00123   1.94527
   A12        1.92367   0.00131   0.00152   0.00068   0.00221   1.92588
   A13        1.88952  -0.00034  -0.00208  -0.00037  -0.00242   1.88709
    D1       -0.03649   0.00110   0.01493   0.06503   0.07993   0.04344
    D2       -3.07648  -0.00188  -0.01307  -0.09907  -0.11211   3.09460
    D3        0.06846  -0.00198  -0.01362  -0.11930  -0.13291  -0.06445
    D4        2.08422  -0.00210  -0.01098  -0.12599  -0.13670   1.94752
    D5       -2.07700  -0.00170  -0.02339  -0.08743  -0.11062  -2.18762
    D6        3.09489   0.00153   0.01805   0.06679   0.08453  -3.10376
    D7       -1.17254   0.00142   0.02069   0.06011   0.08075  -1.09179
    D8        0.94942   0.00181   0.00828   0.09867   0.10683   1.05625
    D9        1.06307  -0.00036  -0.00172  -0.01125  -0.01283   1.05024
   D10       -1.03622   0.00014   0.00329  -0.01390  -0.01045  -1.04667
   D11       -1.07678   0.00024   0.00185  -0.00626  -0.00474  -1.08152
   D12        3.10712   0.00074   0.00686  -0.00891  -0.00236   3.10476
   D13       -3.08410  -0.00076  -0.01310   0.01872   0.00578  -3.07832
   D14        1.09980  -0.00026  -0.00809   0.01607   0.00816   1.10796
         Item               Value     Threshold  Converged?
 Maximum Force            0.007602     0.000450     NO 
 RMS     Force            0.001996     0.000300     NO 
 Maximum Displacement     0.185331     0.001800     NO 
 RMS     Displacement     0.062897     0.001200     NO 
 Predicted change in Energy=-9.106403D-04
 GradGradGradGradGradGradGradGradGradGradGradGradGradGradGradGradGradGrad

                          Input orientation:                          
 ---------------------------------------------------------------------
 Center     Atomic      Atomic             Coordinates (Angstroms)
 Number     Number       Type             X           Y           Z
 ---------------------------------------------------------------------
      1          6           0        1.000158   -1.857580   -0.565869
      2          8           0        0.994208   -1.907714   -1.769723
      3          8           0        1.068802   -3.022867    0.166756
      4          1           0        1.148683   -3.834598   -0.402715
      5          6           0        0.812281   -0.661878    0.363512
      6          1           0        0.720378    0.260466   -0.253931
      7          1           0       -0.158445   -0.766060    0.907687
      8          7           0        1.882155   -0.438540    1.351114
      9          1           0        2.777517   -0.278495    0.899099
     10          1           0        1.975583   -1.248462    1.961059
 ---------------------------------------------------------------------
                    Distance matrix (angstroms):
                    1          2          3          4          5
     1  C    0.000000
     2  O    1.204912   0.000000
     3  O    1.378167   2.235862   0.000000
     4  H    1.989291   2.367584   0.994778   0.000000
     5  C    1.526024   2.477074   2.383020   3.281222   0.000000
     6  H    2.159097   2.659626   3.328461   4.120088   1.113733
     7  H    2.169135   3.130576   2.673630   3.583526   1.117716
     8  N    2.542916   3.561817   2.956856   3.891928   1.473047
     9  H    2.792606   3.599605   3.314756   4.122340   2.072676
    10  H    2.776301   3.913623   2.681472   3.599901   2.061433
                    6          7          8          9         10
     6  H    0.000000
     7  H    1.781977   0.000000
     8  N    2.101072   2.113752   0.000000
     9  H    2.419044   2.976183   1.015679   0.000000
    10  H    2.959490   2.428247   1.018202   1.646721   0.000000
 Stoichiometry    C2H5NO2
 Framework group  C1[X(C2H5NO2)]
 Deg. of freedom    24
 Full point group                 C1      NOp   1
 Largest Abelian subgroup         C1      NOp   1
 Largest concise Abelian subgroup C1      NOp   1
                         Standard orientation:                         
 ---------------------------------------------------------------------
 Center     Atomic      Atomic             Coordinates (Angstroms)
 Number     Number       Type             X           Y           Z
 ---------------------------------------------------------------------
      1          6           0        0.598671   -0.156410    0.028541
      2          8           0        1.511157   -0.884319   -0.270338
      3          8           0        0.807968    1.203136    0.113243
      4          1           0        1.735136    1.468508   -0.130728
      5          6           0       -0.818453   -0.499810    0.478636
      6          1           0       -0.948841   -1.605155    0.438478
      7          1           0       -0.944628   -0.213715    1.551725
      8          7           0       -1.908521    0.111370   -0.301158
      9          1           0       -1.870189   -0.169313   -1.276531
     10          1           0       -1.846144    1.126871   -0.261139
 ---------------------------------------------------------------------
 Rotational constants (GHZ):      9.2033151      3.8372970      3.0223290
 Standard basis: VSTO-6G (5D, 7F)
 There are    25 symmetry adapted cartesian basis functions of A   symmetry.
 There are    25 symmetry adapted basis functions of A   symmetry.
    25 basis functions,   150 primitive gaussians,    25 cartesian basis functions
    15 alpha electrons       15 beta electrons
       nuclear repulsion energy       124.8570840823 Hartrees.
 Integral buffers will be    262144 words long.
 Regular integral format.
 Two-electron integral symmetry is turned off.
 Do NDO integrals.
 One-electron integrals computed using PRISM.
 NBasis=    25 RedAO= F EigKep=  0.00D+00  NBF=    25
 NBsUse=    25 1.00D-04 EigRej=  0.00D+00 NBFU=    25
 Initial guess from the checkpoint file:  "D:\mindmap\gaussian\calculate\opt_freq\gly\gly.chk"
 B after Tr=     0.000000    0.000000    0.000000
         Rot=    0.999861    0.014936   -0.004922    0.005601 Ang=   1.91 deg.
 Overlap will be assumed to be unity.
 Keep J ints in memory in canonical form, NReq=884130.
 Requested convergence on RMS density matrix=1.00D-08 within 128 cycles.
 Requested convergence on MAX density matrix=1.00D-06.
 Requested convergence on             energy=1.00D-06.
 No special actions if energy rises.
 SCF Done:  E(RPM6) = -0.145475796562     A.U. after   12 cycles
            NFock= 11  Conv=0.68D-08     -V/T= 0.9912
 Calling FoFJK, ICntrl=      2127 FMM=F ISym2X=0 I1Cent= 0 IOpClX= 0 NMat=1 NMatS=1 NMatT=0.
 ***** Axes restored to original set *****
 -------------------------------------------------------------------
 Center     Atomic                   Forces (Hartrees/Bohr)
 Number     Number              X              Y              Z
 -------------------------------------------------------------------
      1        6          -0.009909520    0.000071031    0.003487941
      2        8           0.003332218    0.001290182   -0.000228834
      3        8           0.002821931    0.001689451    0.000324072
      4        1           0.000144406    0.000151779   -0.000030893
      5        6           0.004817162   -0.000053055   -0.001957430
      6        1          -0.001570414    0.001517663   -0.003343499
      7        1          -0.000636778   -0.001644608   -0.000431411
      8        7           0.000005323   -0.002992254    0.001707080
      9        1          -0.000040076   -0.000474049   -0.000114763
     10        1           0.001035747    0.000443859    0.000587737
 -------------------------------------------------------------------
 Cartesian Forces:  Max     0.009909520 RMS     0.002544039

 GradGradGradGradGradGradGradGradGradGradGradGradGradGradGradGradGradGrad
 Berny optimization.
 Using GEDIIS/GDIIS optimizer.
 FormGI is forming the generalized inverse of G from B-inverse, IUseBI=4.
 Internal  Forces:  Max     0.005117226 RMS     0.001663558
 Search for a local minimum.
 Step number   3 out of a maximum of   46
 All quantities printed in internal units (Hartrees-Bohrs-Radians)
 Mixed Optimization -- RFO/linear search
 Update second derivatives using D2CorX and points    1    2    3
 DE= -1.57D-05 DEPred=-9.11D-04 R= 1.72D-02
 Trust test= 1.72D-02 RLast= 3.09D-01 DXMaxT set to 2.52D-01
 ITU= -1  1  0
 Use linear search instead of GDIIS.
     Eigenvalues ---    0.00543   0.00591   0.02004   0.03022   0.03902
     Eigenvalues ---    0.04724   0.06356   0.10996   0.11399   0.15759
     Eigenvalues ---    0.16044   0.16158   0.17041   0.24946   0.25156
     Eigenvalues ---    0.31488   0.31906   0.33931   0.36576   0.44405
     Eigenvalues ---    0.44999   0.48528   0.50327   1.01865
 RFO step:  Lambda=-2.68891853D-04 EMin= 5.43326608D-03
 Quartic linear search produced a step of -0.49554.
 Iteration  1 RMS(Cart)=  0.04107834 RMS(Int)=  0.00094651
 Iteration  2 RMS(Cart)=  0.00112871 RMS(Int)=  0.00044246
 Iteration  3 RMS(Cart)=  0.00000031 RMS(Int)=  0.00044246
 Variable       Old X    -DE/DX   Delta X   Delta X   Delta X     New X
                                 (Linear)    (Quad)   (Total)
    R1        2.27695   0.00016   0.00059  -0.00057   0.00002   2.27698
    R2        2.60436  -0.00125   0.00014  -0.00200  -0.00186   2.60250
    R3        2.88377  -0.00512   0.00438  -0.01645  -0.01207   2.87170
    R4        1.87986  -0.00009   0.00050  -0.00069  -0.00019   1.87967
    R5        2.10465   0.00324  -0.00176   0.00706   0.00530   2.10995
    R6        2.11218   0.00050   0.00120  -0.00042   0.00078   2.11296
    R7        2.78366   0.00173   0.00885  -0.00765   0.00120   2.78485
    R8        1.91935  -0.00006   0.00064  -0.00091  -0.00027   1.91908
    R9        1.92412   0.00009   0.00066  -0.00057   0.00009   1.92421
    A1        2.09000   0.00144  -0.00053   0.00412   0.00511   2.09511
    A2        2.26592  -0.00042   0.00089  -0.00181   0.00060   2.26652
    A3        1.92292  -0.00071  -0.00093  -0.00198  -0.00140   1.92152
    A4        1.97103  -0.00021   0.00198  -0.00355  -0.00157   1.96946
    A5        1.89802  -0.00089   0.00227  -0.00556  -0.00333   1.89469
    A6        1.90753  -0.00083   0.00316  -0.01065  -0.00741   1.90011
    A7        2.02383  -0.00202  -0.01547   0.00246  -0.01301   2.01082
    A8        1.84984  -0.00003  -0.00093   0.00423   0.00324   1.85308
    A9        1.88185   0.00306   0.01540   0.00575   0.02109   1.90294
   A10        1.89494   0.00091  -0.00329   0.00422   0.00089   1.89583
   A11        1.94527  -0.00069   0.00061  -0.00559  -0.00498   1.94029
   A12        1.92588   0.00205  -0.00109   0.00767   0.00658   1.93246
   A13        1.88709  -0.00071   0.00120  -0.00436  -0.00315   1.88394
    D1        0.04344  -0.00144  -0.03961  -0.00868  -0.04848  -0.00504
    D2        3.09460   0.00171   0.05556  -0.00541   0.05034  -3.13825
    D3       -0.06445   0.00254   0.06586  -0.02521   0.04061  -0.02384
    D4        1.94752   0.00157   0.06774  -0.02897   0.03868   1.98620
    D5       -2.18762   0.00063   0.05481  -0.03014   0.02465  -2.16297
    D6       -3.10376  -0.00115  -0.04189  -0.02930  -0.07113   3.10829
    D7       -1.09179  -0.00211  -0.04001  -0.03306  -0.07306  -1.16485
    D8        1.05625  -0.00306  -0.05294  -0.03423  -0.08709   0.96917
    D9        1.05024   0.00047   0.00636  -0.00838  -0.00196   1.04828
   D10       -1.04667   0.00045   0.00518  -0.00435   0.00089  -1.04578
   D11       -1.08152   0.00064   0.00235  -0.00728  -0.00492  -1.08644
   D12        3.10476   0.00062   0.00117  -0.00325  -0.00206   3.10270
   D13       -3.07832  -0.00136  -0.00287  -0.01733  -0.02027  -3.09859
   D14        1.10796  -0.00138  -0.00404  -0.01330  -0.01742   1.09054
         Item               Value     Threshold  Converged?
 Maximum Force            0.005117     0.000450     NO 
 RMS     Force            0.001664     0.000300     NO 
 Maximum Displacement     0.119961     0.001800     NO 
 RMS     Displacement     0.041324     0.001200     NO 
 Predicted change in Energy=-5.473277D-04
 GradGradGradGradGradGradGradGradGradGradGradGradGradGradGradGradGradGrad

                          Input orientation:                          
 ---------------------------------------------------------------------
 Center     Atomic      Atomic             Coordinates (Angstroms)
 Number     Number       Type             X           Y           Z
 ---------------------------------------------------------------------
      1          6           0        0.958706   -1.848117   -0.560613
      2          8           0        0.979348   -1.901633   -1.764171
      3          8           0        1.102762   -2.998155    0.183225
      4          1           0        1.212163   -3.810909   -0.379664
      5          6           0        0.801386   -0.648157    0.358434
      6          1           0        0.721788    0.271976   -0.268998
      7          1           0       -0.169526   -0.736795    0.905871
      8          7           0        1.882171   -0.466002    1.343554
      9          1           0        2.779385   -0.340574    0.884656
     10          1           0        1.953135   -1.277361    1.954694
 ---------------------------------------------------------------------
                    Distance matrix (angstroms):
                    1          2          3          4          5
     1  C    0.000000
     2  O    1.204925   0.000000
     3  O    1.377183   2.238290   0.000000
     4  H    1.987344   2.369895   0.994677   0.000000
     5  C    1.519639   2.471503   2.375714   3.273611   0.000000
     6  H    2.153129   2.650746   3.323162   4.113717   1.116536
     7  H    2.158360   3.131435   2.693452   3.607193   1.118130
     8  N    2.527624   3.540351   2.892342   3.821884   1.473681
     9  H    2.770625   3.562770   3.219597   4.012221   2.069782
    10  H    2.764312   3.894604   2.611967   3.523795   2.066512
                    6          7          8          9         10
     6  H    0.000000
     7  H    1.786723   0.000000
     8  N    2.119299   2.115267   0.000000
     9  H    2.437179   2.975486   1.015536   0.000000
    10  H    2.976822   2.428566   1.018249   1.644761   0.000000
 Stoichiometry    C2H5NO2
 Framework group  C1[X(C2H5NO2)]
 Deg. of freedom    24
 Full point group                 C1      NOp   1
 Largest Abelian subgroup         C1      NOp   1
 Largest concise Abelian subgroup C1      NOp   1
                         Standard orientation:                         
 ---------------------------------------------------------------------
 Center     Atomic      Atomic             Coordinates (Angstroms)
 Number     Number       Type             X           Y           Z
 ---------------------------------------------------------------------
      1          6           0        0.603678   -0.157523    0.061896
      2          8           0        1.524082   -0.852817   -0.286336
      3          8           0        0.758335    1.209401    0.126982
      4          1           0        1.671481    1.507406   -0.131356
      5          6           0       -0.810487   -0.542662    0.463277
      6          1           0       -0.917799   -1.649944    0.368083
      7          1           0       -0.955520   -0.307693    1.546776
      8          7           0       -1.882191    0.112030   -0.307804
      9          1           0       -1.810752   -0.109677   -1.296265
     10          1           0       -1.830553    1.124139   -0.208817
 ---------------------------------------------------------------------
 Rotational constants (GHZ):      9.1585572      3.9134853      3.0667980
 Standard basis: VSTO-6G (5D, 7F)
 There are    25 symmetry adapted cartesian basis functions of A   symmetry.
 There are    25 symmetry adapted basis functions of A   symmetry.
    25 basis functions,   150 primitive gaussians,    25 cartesian basis functions
    15 alpha electrons       15 beta electrons
       nuclear repulsion energy       125.0988899479 Hartrees.
 Integral buffers will be    262144 words long.
 Regular integral format.
 Two-electron integral symmetry is turned off.
 Do NDO integrals.
 One-electron integrals computed using PRISM.
 NBasis=    25 RedAO= F EigKep=  0.00D+00  NBF=    25
 NBsUse=    25 1.00D-04 EigRej=  0.00D+00 NBFU=    25
 Initial guess from the checkpoint file:  "D:\mindmap\gaussian\calculate\opt_freq\gly\gly.chk"
 B after Tr=     0.000000    0.000000    0.000000
         Rot=    0.999880   -0.013173    0.002529   -0.007743 Ang=  -1.77 deg.
 Overlap will be assumed to be unity.
 Keep J ints in memory in canonical form, NReq=884130.
 Requested convergence on RMS density matrix=1.00D-08 within 128 cycles.
 Requested convergence on MAX density matrix=1.00D-06.
 Requested convergence on             energy=1.00D-06.
 No special actions if energy rises.
 SCF Done:  E(RPM6) = -0.146053519278     A.U. after   12 cycles
            NFock= 11  Conv=0.24D-08     -V/T= 0.9912
 Calling FoFJK, ICntrl=      2127 FMM=F ISym2X=0 I1Cent= 0 IOpClX= 0 NMat=1 NMatS=1 NMatT=0.
 ***** Axes restored to original set *****
 -------------------------------------------------------------------
 Center     Atomic                   Forces (Hartrees/Bohr)
 Number     Number              X              Y              Z
 -------------------------------------------------------------------
      1        6           0.000417336   -0.000078052    0.000747972
      2        8          -0.000481527    0.000008992   -0.000461917
      3        8           0.000270014   -0.000011466   -0.000194494
      4        1          -0.000004017   -0.000163812    0.000099633
      5        6           0.000285492   -0.000044077   -0.000096935
      6        1          -0.000284083    0.000950008   -0.000915141
      7        1          -0.000752843   -0.000118207    0.000051738
      8        7           0.000016687   -0.000443248    0.000688550
      9        1           0.000286708   -0.000170330    0.000052378
     10        1           0.000246232    0.000070194    0.000028217
 -------------------------------------------------------------------
 Cartesian Forces:  Max     0.000950008 RMS     0.000395003

 GradGradGradGradGradGradGradGradGradGradGradGradGradGradGradGradGradGrad
 Berny optimization.
 Using GEDIIS/GDIIS optimizer.
 FormGI is forming the generalized inverse of G from B-inverse, IUseBI=4.
 Internal  Forces:  Max     0.001317411 RMS     0.000364332
 Search for a local minimum.
 Step number   4 out of a maximum of   46
 All quantities printed in internal units (Hartrees-Bohrs-Radians)
 Mixed Optimization -- En-DIIS/RFO-DIIS
 Update second derivatives using D2CorX and points    1    2    3    4
 DE= -5.78D-04 DEPred=-5.47D-04 R= 1.06D+00
 TightC=F SS=  1.41D+00  RLast= 1.68D-01 DXNew= 4.2426D-01 5.0508D-01
 Trust test= 1.06D+00 RLast= 1.68D-01 DXMaxT set to 4.24D-01
 ITU=  1 -1  1  0
 Use linear search instead of GDIIS.
     Eigenvalues ---    0.00489   0.00548   0.02013   0.03190   0.03922
     Eigenvalues ---    0.04747   0.06432   0.10608   0.12761   0.15823
     Eigenvalues ---    0.15996   0.16343   0.18616   0.24962   0.25209
     Eigenvalues ---    0.31280   0.31607   0.33338   0.37240   0.44404
     Eigenvalues ---    0.45060   0.48541   0.50469   1.02004
 RFO step:  Lambda=-8.55436437D-05 EMin= 4.89454991D-03
 Quartic linear search produced a step of  0.05127.
 Iteration  1 RMS(Cart)=  0.02463163 RMS(Int)=  0.00034219
 Iteration  2 RMS(Cart)=  0.00041109 RMS(Int)=  0.00002588
 Iteration  3 RMS(Cart)=  0.00000011 RMS(Int)=  0.00002588
 Variable       Old X    -DE/DX   Delta X   Delta X   Delta X     New X
                                 (Linear)    (Quad)   (Total)
    R1        2.27698   0.00045   0.00000   0.00040   0.00040   2.27738
    R2        2.60250   0.00012  -0.00010   0.00024   0.00015   2.60265
    R3        2.87170   0.00010  -0.00062  -0.00046  -0.00108   2.87062
    R4        1.87967   0.00008  -0.00001   0.00009   0.00008   1.87975
    R5        2.10995   0.00132   0.00027   0.00515   0.00542   2.11537
    R6        2.11296   0.00069   0.00004   0.00227   0.00231   2.11526
    R7        2.78485   0.00085   0.00006   0.00151   0.00157   2.78642
    R8        1.91908   0.00021  -0.00001   0.00042   0.00041   1.91949
    R9        1.92421  -0.00002   0.00000  -0.00017  -0.00016   1.92405
    A1        2.09511   0.00001   0.00026   0.00011   0.00029   2.09540
    A2        2.26652  -0.00019   0.00003  -0.00107  -0.00113   2.26539
    A3        1.92152   0.00018  -0.00007   0.00102   0.00086   1.92237
    A4        1.96946   0.00033  -0.00008   0.00199   0.00191   1.97137
    A5        1.89469  -0.00007  -0.00017  -0.00053  -0.00070   1.89399
    A6        1.90011  -0.00007  -0.00038  -0.00424  -0.00462   1.89549
    A7        2.01082  -0.00046  -0.00067   0.00122   0.00054   2.01136
    A8        1.85308  -0.00012   0.00017  -0.00093  -0.00078   1.85231
    A9        1.90294   0.00058   0.00108   0.00372   0.00480   1.90774
   A10        1.89583   0.00016   0.00005   0.00057   0.00061   1.89644
   A11        1.94029   0.00016  -0.00026   0.00102   0.00077   1.94105
   A12        1.93246   0.00030   0.00034   0.00238   0.00272   1.93518
   A13        1.88394  -0.00028  -0.00016  -0.00258  -0.00274   1.88120
    D1       -0.00504   0.00001  -0.00249   0.00082  -0.00167  -0.00671
    D2       -3.13825  -0.00005   0.00258  -0.00543  -0.00285  -3.14110
    D3       -0.02384  -0.00008   0.00208  -0.04643  -0.04435  -0.06819
    D4        1.98620  -0.00030   0.00198  -0.05006  -0.04808   1.93812
    D5       -2.16297  -0.00046   0.00126  -0.05173  -0.05047  -2.21343
    D6        3.10829   0.00000  -0.00365  -0.03937  -0.04301   3.06528
    D7       -1.16485  -0.00022  -0.00375  -0.04300  -0.04675  -1.21160
    D8        0.96917  -0.00038  -0.00446  -0.04467  -0.04913   0.92003
    D9        1.04828   0.00005  -0.00010  -0.00423  -0.00433   1.04395
   D10       -1.04578   0.00010   0.00005  -0.00324  -0.00319  -1.04897
   D11       -1.08644   0.00002  -0.00025  -0.00727  -0.00752  -1.09396
   D12        3.10270   0.00007  -0.00011  -0.00629  -0.00639   3.09631
   D13       -3.09859  -0.00023  -0.00104  -0.00847  -0.00952  -3.10811
   D14        1.09054  -0.00018  -0.00089  -0.00749  -0.00838   1.08216
         Item               Value     Threshold  Converged?
 Maximum Force            0.001317     0.000450     NO 
 RMS     Force            0.000364     0.000300     NO 
 Maximum Displacement     0.089733     0.001800     NO 
 RMS     Displacement     0.024627     0.001200     NO 
 Predicted change in Energy=-4.486096D-05
 GradGradGradGradGradGradGradGradGradGradGradGradGradGradGradGradGradGrad

                          Input orientation:                          
 ---------------------------------------------------------------------
 Center     Atomic      Atomic             Coordinates (Angstroms)
 Number     Number       Type             X           Y           Z
 ---------------------------------------------------------------------
      1          6           0        0.950356   -1.846375   -0.561533
      2          8           0        0.931863   -1.906797   -1.765012
      3          8           0        1.136646   -2.989471    0.183772
      4          1           0        1.238486   -3.805302   -0.376155
      5          6           0        0.803425   -0.643111    0.353964
      6          1           0        0.734170    0.278168   -0.278112
      7          1           0       -0.173217   -0.723183    0.894984
      8          7           0        1.880191   -0.473246    1.346891
      9          1           0        2.783299   -0.364795    0.894800
     10          1           0        1.936100   -1.281615    1.963390
 ---------------------------------------------------------------------
                    Distance matrix (angstroms):
                    1          2          3          4          5
     1  C    0.000000
     2  O    1.205137   0.000000
     3  O    1.377262   2.238723   0.000000
     4  H    1.988662   2.372186   0.994721   0.000000
     5  C    1.519068   2.470517   2.376006   3.274416   0.000000
     6  H    2.154239   2.650288   3.324573   4.115661   1.119406
     7  H    2.155323   3.114117   2.712494   3.620518   1.119350
     8  N    2.528273   3.555044   2.870034   3.805689   1.474512
     9  H    2.770499   3.588898   3.178986   3.979806   2.071199
    10  H    2.768733   3.911563   2.592863   3.511286   2.069032
                    6          7          8          9         10
     6  H    0.000000
     7  H    1.789472   0.000000
     8  N    2.125705   2.117352   0.000000
     9  H    2.447050   2.978159   1.015751   0.000000
    10  H    2.983603   2.429518   1.018164   1.643225   0.000000
 Stoichiometry    C2H5NO2
 Framework group  C1[X(C2H5NO2)]
 Deg. of freedom    24
 Full point group                 C1      NOp   1
 Largest Abelian subgroup         C1      NOp   1
 Largest concise Abelian subgroup C1      NOp   1
                         Standard orientation:                         
 ---------------------------------------------------------------------
 Center     Atomic      Atomic             Coordinates (Angstroms)
 Number     Number       Type             X           Y           Z
 ---------------------------------------------------------------------
      1          6           0        0.606262   -0.155763    0.058122
      2          8           0        1.545018   -0.831001   -0.281208
      3          8           0        0.732414    1.213724    0.131895
      4          1           0        1.642620    1.533059   -0.111043
      5          6           0       -0.803704   -0.572559    0.440020
      6          1           0       -0.899419   -1.678269    0.294025
      7          1           0       -0.945740   -0.390053    1.535219
      8          7           0       -1.882767    0.111552   -0.296051
      9          1           0       -1.809051   -0.055121   -1.295319
     10          1           0       -1.843845    1.117677   -0.144874
 ---------------------------------------------------------------------
 Rotational constants (GHZ):      9.2113683      3.9213535      3.0590514
 Standard basis: VSTO-6G (5D, 7F)
 There are    25 symmetry adapted cartesian basis functions of A   symmetry.
 There are    25 symmetry adapted basis functions of A   symmetry.
    25 basis functions,   150 primitive gaussians,    25 cartesian basis functions
    15 alpha electrons       15 beta electrons
       nuclear repulsion energy       125.1101243250 Hartrees.
 Integral buffers will be    262144 words long.
 Regular integral format.
 Two-electron integral symmetry is turned off.
 Do NDO integrals.
 One-electron integrals computed using PRISM.
 NBasis=    25 RedAO= F EigKep=  0.00D+00  NBF=    25
 NBsUse=    25 1.00D-04 EigRej=  0.00D+00 NBFU=    25
 Initial guess from the checkpoint file:  "D:\mindmap\gaussian\calculate\opt_freq\gly\gly.chk"
 B after Tr=     0.000000    0.000000    0.000000
         Rot=    0.999933   -0.010149    0.000403   -0.005594 Ang=  -1.33 deg.
 Overlap will be assumed to be unity.
 Keep J ints in memory in canonical form, NReq=884130.
 Requested convergence on RMS density matrix=1.00D-08 within 128 cycles.
 Requested convergence on MAX density matrix=1.00D-06.
 Requested convergence on             energy=1.00D-06.
 No special actions if energy rises.
 SCF Done:  E(RPM6) = -0.146130806629     A.U. after   11 cycles
            NFock= 10  Conv=0.37D-08     -V/T= 0.9912
 Calling FoFJK, ICntrl=      2127 FMM=F ISym2X=0 I1Cent= 0 IOpClX= 0 NMat=1 NMatS=1 NMatT=0.
 ***** Axes restored to original set *****
 -------------------------------------------------------------------
 Center     Atomic                   Forces (Hartrees/Bohr)
 Number     Number              X              Y              Z
 -------------------------------------------------------------------
      1        6           0.000570594   -0.000180013    0.000095866
      2        8          -0.000528241   -0.000114371   -0.000123396
      3        8           0.000232271   -0.000110650   -0.000112937
      4        1           0.000000160    0.000080604    0.000016205
      5        6           0.000207137    0.000204253    0.000186058
      6        1           0.000219032   -0.000160995    0.000236573
      7        1          -0.000224092    0.000240258   -0.000098800
      8        7          -0.000367847    0.000263977    0.000108403
      9        1           0.000019102   -0.000100709   -0.000093413
     10        1          -0.000128115   -0.000122354   -0.000214558
 -------------------------------------------------------------------
 Cartesian Forces:  Max     0.000570594 RMS     0.000219122

 GradGradGradGradGradGradGradGradGradGradGradGradGradGradGradGradGradGrad
 Berny optimization.
 Using GEDIIS/GDIIS optimizer.
 FormGI is forming the generalized inverse of G from B-inverse, IUseBI=4.
 Internal  Forces:  Max     0.000477904 RMS     0.000184882
 Search for a local minimum.
 Step number   5 out of a maximum of   46
 All quantities printed in internal units (Hartrees-Bohrs-Radians)
 Mixed Optimization -- En-DIIS/RFO-DIIS
 Swapping is turned off.
 Update second derivatives using D2CorX and points    1    2    3    4    5
 DE= -7.73D-05 DEPred=-4.49D-05 R= 1.72D+00
 TightC=F SS=  1.41D+00  RLast= 1.17D-01 DXNew= 7.1352D-01 3.5088D-01
 Trust test= 1.72D+00 RLast= 1.17D-01 DXMaxT set to 4.24D-01
 ITU=  1  1 -1  1  0
     Eigenvalues ---    0.00058   0.00554   0.02018   0.03142   0.03912
     Eigenvalues ---    0.04931   0.06435   0.11420   0.12661   0.15976
     Eigenvalues ---    0.16425   0.17342   0.19073   0.24928   0.25272
     Eigenvalues ---    0.31493   0.32181   0.39549   0.44403   0.45094
     Eigenvalues ---    0.48394   0.50730   0.55731   1.02276
 En-DIIS/RFO-DIIS IScMMF=        0 using points:     5    4
 RFO step:  Lambda=-1.62298210D-05.
 DidBck=F Rises=F RFO-DIIS coefs:    3.95168   -2.95168
 Iteration  1 RMS(Cart)=  0.10431256 RMS(Int)=  0.08787191
 Iteration  2 RMS(Cart)=  0.10233691 RMS(Int)=  0.00845288
 Iteration  3 RMS(Cart)=  0.01067654 RMS(Int)=  0.00011895
 Iteration  4 RMS(Cart)=  0.00008545 RMS(Int)=  0.00009461
 Iteration  5 RMS(Cart)=  0.00000000 RMS(Int)=  0.00009461
 Variable       Old X    -DE/DX   Delta X   Delta X   Delta X     New X
                                 (Linear)    (Quad)   (Total)
    R1        2.27738   0.00014   0.00118   0.00072   0.00190   2.27928
    R2        2.60265   0.00000   0.00044  -0.00078  -0.00034   2.60231
    R3        2.87062   0.00036  -0.00318  -0.00823  -0.01141   2.85921
    R4        1.87975  -0.00008   0.00024  -0.00105  -0.00080   1.87895
    R5        2.11537  -0.00028   0.01601   0.01249   0.02850   2.14387
    R6        2.11526   0.00013   0.00681   0.00528   0.01208   2.12735
    R7        2.78642  -0.00048   0.00463  -0.00980  -0.00516   2.78126
    R8        1.91949   0.00005   0.00120   0.00047   0.00168   1.92117
    R9        1.92405  -0.00004  -0.00048  -0.00126  -0.00174   1.92232
    A1        2.09540  -0.00014   0.00084   0.00055   0.00139   2.09679
    A2        2.26539  -0.00006  -0.00334  -0.00495  -0.00829   2.25709
    A3        1.92237   0.00020   0.00253   0.00439   0.00691   1.92929
    A4        1.97137  -0.00006   0.00565  -0.00041   0.00524   1.97661
    A5        1.89399   0.00006  -0.00208  -0.00305  -0.00546   1.88853
    A6        1.89549   0.00010  -0.01364  -0.01562  -0.02930   1.86620
    A7        2.01136  -0.00004   0.00161   0.01415   0.01568   2.02705
    A8        1.85231  -0.00006  -0.00229  -0.00282  -0.00536   1.84695
    A9        1.90774  -0.00002   0.01416   0.00259   0.01663   1.92437
   A10        1.89644  -0.00003   0.00179   0.00333   0.00522   1.90166
   A11        1.94105  -0.00009   0.00227  -0.00678  -0.00454   1.93652
   A12        1.93518  -0.00042   0.00803  -0.00304   0.00497   1.94015
   A13        1.88120   0.00012  -0.00809  -0.01225  -0.02038   1.86082
    D1       -0.00671   0.00005  -0.00494  -0.00919  -0.01412  -0.02083
    D2       -3.14110  -0.00003  -0.00841  -0.00735  -0.01576   3.12633
    D3       -0.06819  -0.00030  -0.13090  -0.26498  -0.39600  -0.46419
    D4        1.93812  -0.00029  -0.14192  -0.27812  -0.41989   1.51822
    D5       -2.21343  -0.00029  -0.14896  -0.27596  -0.42494  -2.63838
    D6        3.06528  -0.00021  -0.12697  -0.26701  -0.39410   2.67118
    D7       -1.21160  -0.00020  -0.13799  -0.28015  -0.41800  -1.62960
    D8        0.92003  -0.00020  -0.14503  -0.27799  -0.42304   0.49699
    D9        1.04395  -0.00010  -0.01277  -0.02364  -0.03630   1.00765
   D10       -1.04897   0.00008  -0.00942  -0.00166  -0.01099  -1.05996
   D11       -1.09396  -0.00014  -0.02221  -0.03178  -0.05407  -1.14803
   D12        3.09631   0.00005  -0.01886  -0.00979  -0.02876   3.06755
   D13       -3.10811  -0.00003  -0.02809  -0.03165  -0.05973   3.11534
   D14        1.08216   0.00015  -0.02474  -0.00967  -0.03442   1.04774
         Item               Value     Threshold  Converged?
 Maximum Force            0.000478     0.000450     NO 
 RMS     Force            0.000185     0.000300     YES
 Maximum Displacement     0.755020     0.001800     NO 
 RMS     Displacement     0.210811     0.001200     NO 
 Predicted change in Energy=-3.045160D-04
 GradGradGradGradGradGradGradGradGradGradGradGradGradGradGradGradGradGrad

                          Input orientation:                          
 ---------------------------------------------------------------------
 Center     Atomic      Atomic             Coordinates (Angstroms)
 Number     Number       Type             X           Y           Z
 ---------------------------------------------------------------------
      1          6           0        0.879473   -1.844600   -0.551392
      2          8           0        0.532324   -1.983229   -1.698148
      3          8           0        1.418142   -2.906063    0.141059
      4          1           0        1.457729   -3.743711   -0.393173
      5          6           0        0.828808   -0.611027    0.323244
      6          1           0        0.873994    0.301959   -0.348677
      7          1           0       -0.190067   -0.590010    0.801523
      8          7           0        1.853191   -0.520111    1.376101
      9          1           0        2.787924   -0.561374    0.978448
     10          1           0        1.779801   -1.297560    2.028003
 ---------------------------------------------------------------------
                    Distance matrix (angstroms):
                    1          2          3          4          5
     1  C    0.000000
     2  O    1.206143   0.000000
     3  O    1.377082   2.240307   0.000000
     4  H    1.991491   2.378788   0.994296   0.000000
     5  C    1.513030   2.461071   2.376489   3.274524   0.000000
     6  H    2.156116   2.675798   3.290493   4.087808   1.134488
     7  H    2.132672   2.951485   2.895972   3.753447   1.125744
     8  N    2.533304   3.651906   2.721648   3.698421   1.471779
     9  H    2.762113   3.778039   2.841671   3.711878   2.066372
    10  H    2.786238   3.988802   2.505721   3.456802   2.069280
                    6          7          8          9         10
     6  H    0.000000
     7  H    1.802996   0.000000
     8  N    2.146972   2.123660   0.000000
     9  H    2.483895   2.983380   1.016640   0.000000
    10  H    3.004590   2.425957   1.017246   1.630904   0.000000
 Stoichiometry    C2H5NO2
 Framework group  C1[X(C2H5NO2)]
 Deg. of freedom    24
 Full point group                 C1      NOp   1
 Largest Abelian subgroup         C1      NOp   1
 Largest concise Abelian subgroup C1      NOp   1
                         Standard orientation:                         
 ---------------------------------------------------------------------
 Center     Atomic      Atomic             Coordinates (Angstroms)
 Number     Number       Type             X           Y           Z
 ---------------------------------------------------------------------
      1          6           0        0.622889   -0.139656    0.030926
      2          8           0        1.675154   -0.690803   -0.178256
      3          8           0        0.564880    1.234152    0.106028
      4          1           0        1.450632    1.671244   -0.008078
      5          6           0       -0.750715   -0.740858    0.233477
      6          1           0       -0.783471   -1.739205   -0.304383
      7          1           0       -0.845658   -0.979454    1.329541
      8          7           0       -1.891122    0.095376   -0.174346
      9          1           0       -1.822573    0.349903   -1.156219
     10          1           0       -1.914399    0.966172    0.350973
 ---------------------------------------------------------------------
 Rotational constants (GHZ):      9.7374283      3.9807503      2.9967189
 Standard basis: VSTO-6G (5D, 7F)
 There are    25 symmetry adapted cartesian basis functions of A   symmetry.
 There are    25 symmetry adapted basis functions of A   symmetry.
    25 basis functions,   150 primitive gaussians,    25 cartesian basis functions
    15 alpha electrons       15 beta electrons
       nuclear repulsion energy       125.3178177975 Hartrees.
 Integral buffers will be    262144 words long.
 Regular integral format.
 Two-electron integral symmetry is turned off.
 Do NDO integrals.
 One-electron integrals computed using PRISM.
 NBasis=    25 RedAO= F EigKep=  0.00D+00  NBF=    25
 NBsUse=    25 1.00D-04 EigRej=  0.00D+00 NBFU=    25
 Initial guess from the checkpoint file:  "D:\mindmap\gaussian\calculate\opt_freq\gly\gly.chk"
 B after Tr=     0.000000    0.000000    0.000000
         Rot=    0.997502   -0.060798    0.001658   -0.035930 Ang=  -8.10 deg.
 Overlap will be assumed to be unity.
 Keep J ints in memory in canonical form, NReq=884130.
 Requested convergence on RMS density matrix=1.00D-08 within 128 cycles.
 Requested convergence on MAX density matrix=1.00D-06.
 Requested convergence on             energy=1.00D-06.
 No special actions if energy rises.
 SCF Done:  E(RPM6) = -0.146548439109     A.U. after   12 cycles
            NFock= 11  Conv=0.68D-08     -V/T= 0.9912
 Calling FoFJK, ICntrl=      2127 FMM=F ISym2X=0 I1Cent= 0 IOpClX= 0 NMat=1 NMatS=1 NMatT=0.
 ***** Axes restored to original set *****
 -------------------------------------------------------------------
 Center     Atomic                   Forces (Hartrees/Bohr)
 Number     Number              X              Y              Z
 -------------------------------------------------------------------
      1        6           0.001422948   -0.000936349   -0.003759205
      2        8          -0.000487882   -0.000837590    0.000980080
      3        8           0.000182955   -0.001052629    0.000466794
      4        1          -0.000075884    0.000542011   -0.000379587
      5        6          -0.004258001    0.003208765   -0.001674196
      6        1           0.000964255   -0.005366273    0.005617704
      7        1           0.002043894    0.002081405   -0.000659270
      8        7           0.001409284    0.002612524   -0.000066007
      9        1           0.000097930    0.000679965   -0.000483896
     10        1          -0.001299499   -0.000931831   -0.000042417
 -------------------------------------------------------------------
 Cartesian Forces:  Max     0.005617704 RMS     0.002115627

 GradGradGradGradGradGradGradGradGradGradGradGradGradGradGradGradGradGrad
 Berny optimization.
 Using GEDIIS/GDIIS optimizer.
 FormGI is forming the generalized inverse of G from B-inverse, IUseBI=4.
 Internal  Forces:  Max     0.007607322 RMS     0.001670259
 Search for a local minimum.
 Step number   6 out of a maximum of   46
 All quantities printed in internal units (Hartrees-Bohrs-Radians)
 Mixed Optimization -- RFO/linear search
 Update second derivatives using D2CorX and points    5    6
 DE= -4.18D-04 DEPred=-3.05D-04 R= 1.37D+00
 TightC=F SS=  1.41D+00  RLast= 1.02D+00 DXNew= 7.1352D-01 3.0540D+00
 Trust test= 1.37D+00 RLast= 1.02D+00 DXMaxT set to 7.14D-01
 ITU=  1  1  1 -1  1  0
 Use linear search instead of GDIIS.
     Eigenvalues ---    0.00029   0.00556   0.02021   0.03149   0.04042
     Eigenvalues ---    0.04922   0.06498   0.11801   0.12705   0.15998
     Eigenvalues ---    0.16431   0.17412   0.19050   0.24944   0.25270
     Eigenvalues ---    0.31509   0.33917   0.40775   0.44491   0.45312
     Eigenvalues ---    0.48533   0.50882   0.70853   1.02678
 RFO step:  Lambda=-3.00949358D-04 EMin= 2.88565969D-04
 Quartic linear search produced a step of  0.19642.
 Iteration  1 RMS(Cart)=  0.10055360 RMS(Int)=  0.00865445
 Iteration  2 RMS(Cart)=  0.01034428 RMS(Int)=  0.00007164
 Iteration  3 RMS(Cart)=  0.00007347 RMS(Int)=  0.00002424
 Iteration  4 RMS(Cart)=  0.00000000 RMS(Int)=  0.00002424
 Variable       Old X    -DE/DX   Delta X   Delta X   Delta X     New X
                                 (Linear)    (Quad)   (Total)
    R1        2.27928  -0.00070   0.00037   0.00015   0.00053   2.27981
    R2        2.60231   0.00048  -0.00007   0.00050   0.00044   2.60274
    R3        2.85921   0.00345  -0.00224   0.00072  -0.00152   2.85769
    R4        1.87895  -0.00026  -0.00016  -0.00035  -0.00051   1.87844
    R5        2.14387  -0.00761   0.00560  -0.00511   0.00048   2.14435
    R6        2.12735  -0.00209   0.00237  -0.00066   0.00172   2.12906
    R7        2.78126  -0.00013  -0.00101   0.00371   0.00269   2.78395
    R8        1.92117   0.00025   0.00033   0.00129   0.00162   1.92279
    R9        1.92232   0.00078  -0.00034   0.00126   0.00092   1.92323
    A1        2.09679  -0.00108   0.00027  -0.00124  -0.00098   2.09581
    A2        2.25709   0.00051  -0.00163  -0.00152  -0.00316   2.25394
    A3        1.92929   0.00058   0.00136   0.00280   0.00415   1.93344
    A4        1.97661  -0.00110   0.00103  -0.00241  -0.00138   1.97523
    A5        1.88853   0.00054  -0.00107  -0.00245  -0.00359   1.88493
    A6        1.86620   0.00122  -0.00575   0.00172  -0.00408   1.86212
    A7        2.02705   0.00132   0.00308   0.00730   0.01035   2.03740
    A8        1.84695  -0.00019  -0.00105  -0.00573  -0.00685   1.84010
    A9        1.92437  -0.00213   0.00327  -0.00417  -0.00092   1.92346
   A10        1.90166  -0.00079   0.00103   0.00230   0.00334   1.90500
   A11        1.93652  -0.00009  -0.00089   0.00064  -0.00025   1.93627
   A12        1.94015  -0.00205   0.00098   0.00125   0.00223   1.94238
   A13        1.86082   0.00112  -0.00400  -0.00120  -0.00521   1.85561
    D1       -0.02083   0.00035  -0.00277   0.00408   0.00131  -0.01952
    D2        3.12633  -0.00002  -0.00310  -0.00283  -0.00593   3.12039
    D3       -0.46419  -0.00115  -0.07778  -0.13501  -0.21283  -0.67702
    D4        1.51822  -0.00051  -0.08248  -0.14196  -0.22439   1.29384
    D5       -2.63838   0.00027  -0.08347  -0.13282  -0.21629  -2.85467
    D6        2.67118  -0.00074  -0.07741  -0.12729  -0.20473   2.46644
    D7       -1.62960  -0.00010  -0.08210  -0.13423  -0.21629  -1.84589
    D8        0.49699   0.00068  -0.08309  -0.12510  -0.20820   0.28879
    D9        1.00765  -0.00051  -0.00713  -0.00357  -0.01070   0.99695
   D10       -1.05996  -0.00052  -0.00216  -0.00330  -0.00545  -1.06541
   D11       -1.14803  -0.00048  -0.01062  -0.00240  -0.01304  -1.16107
   D12        3.06755  -0.00049  -0.00565  -0.00212  -0.00780   3.05975
   D13        3.11534   0.00139  -0.01173   0.00551  -0.00620   3.10914
   D14        1.04774   0.00138  -0.00676   0.00579  -0.00095   1.04678
         Item               Value     Threshold  Converged?
 Maximum Force            0.007607     0.000450     NO 
 RMS     Force            0.001670     0.000300     NO 
 Maximum Displacement     0.357966     0.001800     NO 
 RMS     Displacement     0.106424     0.001200     NO 
 Predicted change in Energy=-2.060903D-04
 GradGradGradGradGradGradGradGradGradGradGradGradGradGradGradGradGradGrad

                          Input orientation:                          
 ---------------------------------------------------------------------
 Center     Atomic      Atomic             Coordinates (Angstroms)
 Number     Number       Type             X           Y           Z
 ---------------------------------------------------------------------
      1          6           0        0.847798   -1.852968   -0.539769
      2          8           0        0.342896   -2.042435   -1.618950
      3          8           0        1.545500   -2.864052    0.083057
      4          1           0        1.554838   -3.710961   -0.437275
      5          6           0        0.843013   -0.602069    0.309970
      6          1           0        0.953931    0.291412   -0.380705
      7          1           0       -0.190232   -0.514021    0.750419
      8          7           0        1.837976   -0.533644    1.394264
      9          1           0        2.781618   -0.641294    1.029229
     10          1           0        1.703980   -1.285696    2.066750
 ---------------------------------------------------------------------
                    Distance matrix (angstroms):
                    1          2          3          4          5
     1  C    0.000000
     2  O    1.206422   0.000000
     3  O    1.377313   2.240120   0.000000
     4  H    1.990615   2.376792   0.994026   0.000000
     5  C    1.512226   2.458760   2.379400   3.275710   0.000000
     6  H    2.152890   2.711726   3.243761   4.047627   1.134744
     7  H    2.129524   2.869527   2.996795   3.830968   1.126652
     8  N    2.541959   3.686621   2.689909   3.678322   1.473203
     9  H    2.769399   3.863083   2.713648   3.616418   2.068105
    10  H    2.801569   4.001199   2.539953   3.489168   2.072411
                    6          7          8          9         10
     6  H    0.000000
     7  H    1.799243   0.000000
     8  N    2.147736   2.128039   0.000000
     9  H    2.489637   2.987612   1.017496   0.000000
    10  H    3.006639   2.432334   1.017730   1.628805   0.000000
 Stoichiometry    C2H5NO2
 Framework group  C1[X(C2H5NO2)]
 Deg. of freedom    24
 Full point group                 C1      NOp   1
 Largest Abelian subgroup         C1      NOp   1
 Largest concise Abelian subgroup C1      NOp   1
                         Standard orientation:                         
 ---------------------------------------------------------------------
 Center     Atomic      Atomic             Coordinates (Angstroms)
 Number     Number       Type             X           Y           Z
 ---------------------------------------------------------------------
      1          6           0        0.628605   -0.134026    0.015544
      2          8           0        1.710003   -0.655076   -0.105040
      3          8           0        0.525298    1.238515    0.065037
      4          1           0        1.404441    1.699168    0.010324
      5          6           0       -0.734110   -0.779128    0.132508
      6          1           0       -0.761117   -1.671099   -0.568422
      7          1           0       -0.799317   -1.211699    1.170764
      8          7           0       -1.900757    0.088960   -0.103467
      9          1           0       -1.853652    0.519051   -1.024392
     10          1           0       -1.934432    0.853267    0.567707
 ---------------------------------------------------------------------
 Rotational constants (GHZ):      9.9361908      3.9801305      2.9648535
 Standard basis: VSTO-6G (5D, 7F)
 There are    25 symmetry adapted cartesian basis functions of A   symmetry.
 There are    25 symmetry adapted basis functions of A   symmetry.
    25 basis functions,   150 primitive gaussians,    25 cartesian basis functions
    15 alpha electrons       15 beta electrons
       nuclear repulsion energy       125.3184993518 Hartrees.
 Integral buffers will be    262144 words long.
 Regular integral format.
 Two-electron integral symmetry is turned off.
 Do NDO integrals.
[...]
    10   1    -0.02  -0.03   0.01     0.00   0.00   0.00     0.00   0.03   0.05
                     22                     23                     24
                      A                      A                      A
 Frequencies --   2713.7252              2793.0994              2833.7738
 Red. masses --      1.0482                 1.0869                 1.0413
 Frc consts  --      4.5479                 4.9957                 4.9268
 IR Inten    --     74.5909                95.2889                65.8893
  Atom  AN      X      Y      Z        X      Y      Z        X      Y      Z
     1   6    -0.01  -0.01   0.00     0.00   0.00   0.00     0.00   0.00   0.00
     2   8     0.00   0.00   0.00     0.00   0.00   0.00     0.00   0.00   0.00
     3   8     0.00   0.00   0.00     0.00   0.00   0.00     0.00   0.00   0.00
     4   1    -0.01   0.00   0.00     0.00   0.00   0.00     0.00   0.00   0.00
     5   6     0.00  -0.06   0.00     0.00   0.00   0.01     0.00   0.01   0.00
     6   1     0.03   0.42   0.56     0.00  -0.04  -0.04     0.00  -0.02  -0.03
     7   1     0.03   0.42  -0.56     0.00   0.04  -0.04     0.00  -0.02   0.03
     8   7     0.00   0.00   0.00     0.00   0.00   0.08     0.00   0.05   0.00
     9   1     0.00  -0.02   0.04    -0.02   0.43  -0.55     0.04  -0.38   0.59
    10   1     0.00  -0.02  -0.03     0.02  -0.43  -0.55     0.04  -0.38  -0.59

 -------------------
 - Thermochemistry -
 -------------------
 Temperature   298.150 Kelvin.  Pressure   1.00000 Atm.
 Atom     1 has atomic number  6 and mass  12.00000
 Atom     2 has atomic number  8 and mass  15.99491
 Atom     3 has atomic number  8 and mass  15.99491
 Atom     4 has atomic number  1 and mass   1.00783
 Atom     5 has atomic number  6 and mass  12.00000
 Atom     6 has atomic number  1 and mass   1.00783
 Atom     7 has atomic number  1 and mass   1.00783
 Atom     8 has atomic number  7 and mass  14.00307
 Atom     9 has atomic number  1 and mass   1.00783
 Atom    10 has atomic number  1 and mass   1.00783
 Molecular mass:    75.03203 amu.
 Principal axes and moments of inertia in atomic units:
                           1         2         3
     Eigenvalues --   179.38559 453.21687 611.61166
           X            0.99965   0.02627  -0.00003
           Y           -0.02627   0.99965   0.00000
           Z            0.00003   0.00000   1.00000
 This molecule is an asymmetric top.
 Rotational symmetry number  1.
 Rotational temperatures (Kelvin)      0.48284     0.19111     0.14162
 Rotational constants (GHZ):          10.06068     3.98207     2.95080
 Zero-point vibrational energy     185193.2 (Joules/Mol)
                                   44.26223 (Kcal/Mol)
 Warning -- explicit consideration of   7 degrees of freedom as
           vibrations may cause significant error
 Vibrational temperatures:     71.31   323.05   345.62   673.90   703.35
          (Kelvin)            742.24   841.58  1300.46  1320.00  1515.33
                             1591.17  1591.80  1724.95  1773.94  1850.30
                             1880.88  1906.79  2316.89  2629.86  3656.30
                             3787.22  3904.44  4018.64  4077.16
 
 Zero-point correction=                           0.070536 (Hartree/Particle)
 Thermal correction to Energy=                    0.076342
 Thermal correction to Enthalpy=                  0.077286
 Thermal correction to Gibbs Free Energy=         0.041181
 Sum of electronic and zero-point Energies=             -0.076734
 Sum of electronic and thermal Energies=                -0.070929
 Sum of electronic and thermal Enthalpies=              -0.069985
 Sum of electronic and thermal Free Energies=           -0.106090
 
                     E (Thermal)             CV                S
                      KCal/Mol        Cal/Mol-Kelvin    Cal/Mol-Kelvin
 Total                   47.905             19.142             75.989
 Electronic               0.000              0.000              0.000
 Translational            0.889              2.981             38.862
 Rotational               0.889              2.981             25.412
 Vibrational             46.128             13.181             11.716
 Vibration     1          0.595              1.978              4.835
 Vibration     2          0.649              1.804              1.922
 Vibration     3          0.657              1.779              1.801
 Vibration     4          0.826              1.320              0.742
 Vibration     5          0.845              1.275              0.687
 Vibration     6          0.871              1.215              0.620
 Vibration     7          0.942              1.064              0.476
                       Q            Log10(Q)             Ln(Q)
 Total Bot       0.114324D-18        -18.941863        -43.615252
 Total V=0       0.318081D+14         13.502537         31.090741
 Vib (Bot)       0.560635D-31        -31.251320        -71.958823
 Vib (Bot)    1  0.417104D+01          0.620244          1.428165
 Vib (Bot)    2  0.879263D+00         -0.055881         -0.128672
 Vib (Bot)    3  0.816182D+00         -0.088213         -0.203118
 Vib (Bot)    4  0.360612D+00         -0.442960         -1.019952
 Vib (Bot)    5  0.339510D+00         -0.469147         -1.080251
 Vib (Bot)    6  0.314069D+00         -0.502975         -1.158143
 Vib (Bot)    7  0.259228D+00         -0.586319         -1.350049
 Vib (V=0)       0.155984D+02          1.193081          2.747170
 Vib (V=0)    1  0.470090D+01          0.672181          1.547754
 Vib (V=0)    2  0.151149D+01          0.179404          0.413093
 Vib (V=0)    3  0.145716D+01          0.163507          0.376488
 Vib (V=0)    4  0.111647D+01          0.047849          0.110176
 Vib (V=0)    5  0.110437D+01          0.043116          0.099278
 Vib (V=0)    6  0.109046D+01          0.037608          0.086597
 Vib (V=0)    7  0.106320D+01          0.026617          0.061287
 Electronic      0.100000D+01          0.000000          0.000000
 Translational   0.255461D+08          7.407325         17.055997
 Rotational      0.798236D+05          4.902131         11.287574
 ***** Axes restored to original set *****
 -------------------------------------------------------------------
 Center     Atomic                   Forces (Hartrees/Bohr)
 Number     Number              X              Y              Z
 -------------------------------------------------------------------
      1        6          -0.000037700    0.000020941   -0.000021083
      2        8           0.000014145   -0.000000103    0.000011932
      3        8           0.000021997   -0.000033508   -0.000002352
      4        1          -0.000007743    0.000021143    0.000009352
      5        6           0.000061225    0.000014949   -0.000010534
      6        1          -0.000016214   -0.000033007    0.000020095
      7        1          -0.000017724    0.000007831    0.000004815
      8        7          -0.000035564    0.000018936   -0.000028414
      9        1           0.000017132    0.000001915    0.000001017
     10        1           0.000000445   -0.000019096    0.000015172
 -------------------------------------------------------------------
 Cartesian Forces:  Max     0.000061225 RMS     0.000021920
 FormGI is forming the generalized inverse of G from B-inverse, IUseBI=4.

 GradGradGradGradGradGradGradGradGradGradGradGradGradGradGradGradGradGrad
 Berny optimization.
 Internal  Forces:  Max     0.000040744 RMS     0.000012566
 Search for a local minimum.
 Step number   1 out of a maximum of    2
 All quantities printed in internal units (Hartrees-Bohrs-Radians)
 Second derivative matrix not updated -- analytic derivatives used.
 ITU=  0
     Eigenvalues ---    0.00069   0.00226   0.01565   0.03236   0.03584
     Eigenvalues ---    0.03882   0.04527   0.08195   0.11069   0.12368
     Eigenvalues ---    0.12658   0.15485   0.17580   0.18520   0.19205
     Eigenvalues ---    0.24857   0.25138   0.27020   0.28437   0.28913
     Eigenvalues ---    0.35853   0.44356   0.50429   0.93072
 Angle between quadratic step and forces=  78.15 degrees.
 Linear search not attempted -- first point.
 Iteration  1 RMS(Cart)=  0.00062190 RMS(Int)=  0.00000037
 Iteration  2 RMS(Cart)=  0.00000038 RMS(Int)=  0.00000001
 Variable       Old X    -DE/DX   Delta X   Delta X   Delta X     New X
                                 (Linear)    (Quad)   (Total)
    R1        2.27840  -0.00002   0.00000  -0.00003  -0.00003   2.27837
    R2        2.60541   0.00002   0.00000   0.00009   0.00009   2.60550
    R3        2.86309  -0.00001   0.00000  -0.00002  -0.00002   2.86307
    R4        1.87983  -0.00002   0.00000  -0.00009  -0.00009   1.87973
    R5        2.11739  -0.00004   0.00000  -0.00017  -0.00017   2.11721
    R6        2.11708   0.00002   0.00000   0.00014   0.00014   2.11721
    R7        2.78691  -0.00002   0.00000  -0.00010  -0.00010   2.78681
    R8        1.92420   0.00002   0.00000   0.00004   0.00004   1.92424
    R9        1.92414   0.00002   0.00000   0.00010   0.00010   1.92424
    A1        2.09229  -0.00001   0.00000  -0.00006  -0.00006   2.09224
    A2        2.25772   0.00000   0.00000   0.00005   0.00005   2.25778
    A3        1.93317   0.00000   0.00000   0.00000   0.00000   1.93317
    A4        1.96756  -0.00001   0.00000  -0.00008  -0.00008   1.96748
    A5        1.88870  -0.00001   0.00000  -0.00001  -0.00001   1.88869
    A6        1.88878  -0.00001   0.00000  -0.00009  -0.00009   1.88869
    A7        2.03684   0.00002   0.00000   0.00012   0.00012   2.03696
    A8        1.83425   0.00000   0.00000  -0.00011  -0.00011   1.83414
    A9        1.90218   0.00000   0.00000   0.00019   0.00019   1.90237
   A10        1.90249  -0.00001   0.00000  -0.00012  -0.00012   1.90237
   A11        1.92961   0.00001   0.00000   0.00007   0.00007   1.92969
   A12        1.92965   0.00000   0.00000   0.00003   0.00003   1.92969
   A13        1.86157  -0.00001   0.00000  -0.00004  -0.00004   1.86153
    D1        0.00025   0.00000   0.00000  -0.00025  -0.00025   0.00000
    D2       -3.14133   0.00000   0.00000  -0.00026  -0.00026  -3.14159
    D3       -0.99002   0.00001   0.00000   0.00062   0.00062  -0.98939
    D4        0.98895   0.00000   0.00000   0.00044   0.00044   0.98939
    D5        3.14130   0.00000   0.00000   0.00029   0.00029   3.14159
    D6        2.15157   0.00001   0.00000   0.00063   0.00063   2.15220
    D7       -2.15265   0.00000   0.00000   0.00045   0.00045  -2.15220
    D8       -0.00030   0.00000   0.00000   0.00030   0.00030   0.00000
    D9        1.02737   0.00000   0.00000   0.00138   0.00138   1.02875
   D10       -1.03012   0.00000   0.00000   0.00136   0.00136  -1.02875
   D11       -1.11753   0.00000   0.00000   0.00115   0.00115  -1.11639
   D12        3.10816   0.00000   0.00000   0.00113   0.00113   3.10930
   D13       -3.11054   0.00001   0.00000   0.00125   0.00125  -3.10930
   D14        1.11515   0.00000   0.00000   0.00123   0.00123   1.11638
         Item               Value     Threshold  Converged?
 Maximum Force            0.000041     0.000450     YES
 RMS     Force            0.000013     0.000300     YES
 Maximum Displacement     0.002372     0.001800     NO 
 RMS     Displacement     0.000622     0.001200     YES
 Predicted change in Energy=-2.580857D-08
 GradGradGradGradGradGradGradGradGradGradGradGradGradGradGradGradGradGrad

 1|1|UNPC-DESKTOP-KC5UJLK|Freq|RPM6|ZDO|C2H5N1O2|23122|13-Mar-2022|0||#
 N Geom=AllCheck Guess=TCheck SCRF=Check GenChk RPM6/ZDO Freq||opt freq
 (GC)||0,1|C,0.8017419582,-1.8738484481,-0.5104971117|O,0.117619199,-2.
 151175402,-1.4637643048|O,1.6944543028,-2.7993883671,-0.0131821623|H,1
 .6844337661,-3.6546243274,-0.5211391759|C,0.8540451121,-0.5910641847,0
 .293990623|H,1.083952104,0.2525940309,-0.4066121267|H,-0.1757633659,-0
 .3774118593,0.6799189038|N,1.8061982056,-0.5530757159,1.4195608865|H,2
 .7558863157,-0.7156040022,1.0901815558|H,1.5987509823,-1.2921290342,2.
 0885320324||Version=IA32W-G09RevD.01|State=1-A|HF=-0.1472705|RMSD=5.64
 0e-010|RMSF=2.192e-005|ZeroPoint=0.0705364|Thermal=0.0763416|Dipole=0.
 3677246,-0.297998,0.2542191|DipoleDeriv=1.4051151,-0.5121982,0.6607441
 ,-0.4780654,1.3348649,-0.1151248,0.6804942,-0.1543259,1.2768413,-0.841
 5488,0.0966171,-0.3710908,-0.1261933,-0.648005,-0.2477779,-0.5003012,0
 .010249,-1.0464077,-0.9080831,0.3057108,-0.2319808,0.5962348,-1.253273
 9,0.2855463,-0.0634693,-0.0510619,-0.6578711,0.2874378,0.0645805,-0.08
 47244,-0.0740055,0.519909,-0.0120188,-0.1650925,0.1485435,0.2877878,-0
 .344628,0.2471454,0.3511621,0.0246873,-0.2930143,0.162599,0.222443,0.4
 202659,-0.0224554,0.1833292,0.0004724,-0.0520336,0.0059231,0.2524541,-
 0.0826906,-0.0459815,-0.1124085,0.1449485,0.2568619,-0.0736774,-0.0918
 949,-0.046738,0.1706203,-0.0253764,-0.0791119,-0.0332806,0.1531802,-0.
 458912,-0.1334241,-0.0978276,-0.0410281,-0.5882009,-0.132936,-0.044212
 2,-0.2396933,-0.6313269,0.279733,-0.0002099,-0.0127055,0.1554704,0.276
 6495,0.0539179,0.0178433,0.0480782,0.1539849,0.1406929,0.004986,-0.069
 651,-0.016281,0.2279912,0.1138625,-0.0226146,-0.0363673,0.3413162|Pola
 r=26.9105188,-2.7016016,27.3300597,12.8688072,4.34518,31.8834989|Hyper
 Polar=-9.9975602,11.1093134,-30.5251608,-55.7934895,-16.5991121,-6.104
 034,-66.1555156,-23.5794017,-49.6208568,-46.1390061|PG=C01 [X(C2H5N1O2
 )]|NImag=0||0.46323146,-0.00248851,0.51283269,0.34117351,0.19743391,0.
 67713830,-0.26850491,-0.11116762,-0.31138083,0.31996783,-0.09352547,-0
 .09822267,-0.13319949,0.08713767,0.09842680,-0.30114858,-0.15363479,-0
 .49326951,0.39486237,0.14484683,0.56408430,-0.12934480,0.08808100,-0.0
 5027733,-0.05172279,0.02424552,-0.06857965,0.20440465,0.08553071,-0.16
 055034,0.03023000,0.03796900,0.01327881,0.04030377,-0.13768775,0.34131
 113,-0.05174843,0.03317550,-0.08255753,-0.06061969,0.02440577,-0.03644
 234,0.12375504,0.02191091,0.18472546,-0.00025182,0.03556031,0.01815938
 ,-0.00431098,-0.00353998,-0.00279301,-0.02462228,-0.00919614,-0.018109
 82,0.02976305,0.02037598,-0.05032503,-0.00668761,-0.00415696,-0.000310
 34,-0.00286481,0.00842474,-0.14600926,-0.06708583,-0.02723420,0.198017
 40,0.00934507,0.01090822,0.01903993,-0.00315121,-0.00214893,-0.0085704
 7,-0.00788065,-0.08750785,-0.07351397,0.00652276,0.07727156,0.06289885
 ,-0.06094124,-0.00917339,0.01031795,0.00615183,-0.01222852,-0.02021347
 ,0.00127088,0.02650352,0.00657735,-0.00082875,0.00177867,-0.00518300,0
 .45726423,-0.00424434,-0.14124091,-0.04365240,-0.00989212,-0.00952575,
 -0.02712286,0.01707800,-0.04179136,-0.00959461,0.00390082,-0.00088847,
 0.00137530,-0.01017803,0.40186626,0.01318617,-0.04939419,-0.08782537,-
 0.01885888,-0.02982606,-0.02165772,0.00110582,0.00132610,0.01091669,-0
 .00395097,-0.00108640,-0.00067259,0.05366173,-0.01389237,0.45995229,0.
 00544180,-0.00308954,0.00158980,-0.00095053,0.00030768,-0.00047285,-0.
 00070934,0.00075067,0.00028438,-0.00011980,0.00014926,-0.00023600,-0.0
 4191848,-0.03429490,0.02535066,0.04703607,-0.01033529,-0.04220467,0.00
 268345,0.00170323,0.00106430,0.00034545,0.00001534,-0.00056061,-0.0010
 9589,0.00084634,-0.00028894,-0.00018175,-0.02673138,-0.12585929,0.0823
 9979,0.03399066,0.16710291,-0.00233388,-0.00514751,0.01096016,-0.00025
 825,-0.00041130,-0.00284722,0.00061642,-0.00220209,-0.00177291,0.00063
 523,0.00008943,0.00031050,0.02183049,0.08019603,-0.09444360,-0.0189368
 4,-0.10056372,0.12923135,-0.00136335,0.01446738,0.01202186,-0.00182997
 ,-0.00126821,-0.00198259,-0.00003705,-0.00190820,-0.00049808,0.0002000
 7,0.00025897,0.00029611,-0.17319431,0.02985416,0.05418480,-0.00937972,
 -0.00430014,0.00957131,0.22630406,0.02138501,-0.01586309,-0.02239577,-
 0.00087191,-0.00079184,0.00143530,-0.00062059,-0.00237823,-0.00064992,
 0.00022612,-0.00062529,0.00075851,0.02831163,-0.03345687,-0.00725458,-
 0.01177025,0.00217152,0.00772026,-0.04102152,0.04728581,0.01575942,-0.
 01417711,-0.00858019,-0.00116077,0.00011674,-0.00010974,-0.00050850,-0
 .00018432,-0.00062773,-0.00019047,-0.00028096,0.00032698,0.06121025,-0
 .01204114,-0.05563882,0.01418898,0.00358499,-0.00659430,-0.06182073,0.
 01998825,0.06983919,-0.00840062,-0.01216065,-0.02042918,0.00089098,-0.
 00201671,-0.00084838,0.00213331,-0.00235291,-0.00020641,-0.00016686,0.
 00055874,0.00047909,-0.15516551,-0.01511310,-0.09920090,0.00323171,0.0
 0426232,-0.00761324,-0.03879299,0.00320566,-0.02388101,0.47238979,-0.0
 1122197,-0.01046282,-0.02090373,-0.00232035,-0.00375615,-0.00521993,-0
 .00099784,-0.00258809,-0.00331754,-0.00099253,0.00084647,-0.00048286,0
 .00427549,-0.04601020,0.02291662,0.01358418,-0.00262618,0.01971633,0.0
 0330940,0.00221343,0.00233805,0.00215030,0.25328519,-0.01989858,-0.021
 96510,-0.03264697,-0.00102123,-0.00486898,-0.00339581,0.00057973,-0.00
 488309,-0.00102851,-0.00041998,0.00131198,-0.00002641,-0.08803731,0.00
 041114,-0.17885868,-0.01771478,0.01182332,-0.03279106,-0.00830263,-0.0
 0068478,0.00440141,0.05175414,-0.09887867,0.43176301,-0.00078236,-0.00
 091353,-0.00133786,0.00039108,0.00084551,0.00101082,-0.00085281,0.0007
 0430,0.00052542,0.00022521,-0.00022699,-0.00013685,-0.03620841,0.00396
 289,-0.00612717,-0.00053780,0.00081076,-0.00068184,-0.00178310,0.00045
 180,-0.00221929,-0.21309213,0.02329533,0.06032430,0.26340185,-0.003560
 09,0.00237715,-0.00178232,0.00099748,0.00015832,0.00109897,0.00084847,
 -0.00000530,0.00107440,0.00029543,-0.00025643,-0.00006162,-0.00694739,
 -0.00316226,-0.00297127,0.00165723,0.00060204,0.00085626,-0.00025859,0
 .00139174,-0.00071089,0.06220914,-0.03762884,-0.00842878,-0.02833465,0
 .03171944,-0.00242381,0.00168066,0.00036533,0.00072063,0.00026240,0.00
 062836,0.00071598,0.00005060,-0.00004290,0.00007459,-0.00018041,0.0000
 9612,-0.03445705,0.00290180,0.00561490,-0.00082929,0.00034503,0.000312
 94,-0.00282258,0.00037811,-0.00347079,0.07595832,-0.00085015,-0.076488
 64,-0.06110672,-0.00229120,0.08241978,0.00091625,0.00088449,0.00016238
 ,-0.00008270,0.00004231,0.00016537,-0.00051986,-0.00031318,0.00004045,
 0.00011217,0.00007175,-0.00005546,0.00356959,0.01892709,-0.01935099,-0
 .00209391,-0.00026184,-0.00282940,-0.00012369,0.00070397,-0.00137796,-
 0.06302778,-0.03108216,0.02273627,-0.01076148,-0.02690700,0.02416996,0
 .07201148,-0.00191660,0.00366063,-0.00172654,0.00060171,-0.00032155,0.
 00081233,0.00061336,-0.00070701,0.00117751,0.00013392,-0.00016030,0.00
 006937,0.00438944,0.00006816,-0.00221789,-0.00128496,0.00059888,-0.000
 25357,0.00086683,0.00005276,0.00136640,-0.04074293,-0.15327262,0.12616
 295,-0.00059538,0.00480422,-0.00229680,0.03793459,0.14527688,-0.001911
 35,0.00112053,-0.00262396,0.00086797,0.00082287,0.00157993,0.00047342,
 0.00095603,0.00034383,0.00007222,-0.00048714,0.00011098,-0.00570692,0.
 02141934,-0.03738711,-0.00322405,0.00065924,-0.00236591,-0.00064742,0.
 00070459,0.00045400,0.02398750,0.08468186,-0.11092852,0.00974926,0.013
 21647,-0.00943500,-0.02366060,-0.12309372,0.16025188||0.00003770,-0.00
 002094,0.00002108,-0.00001415,0.00000010,-0.00001193,-0.00002200,0.000
 03351,0.00000235,0.00000774,-0.00002114,-0.00000935,-0.00006123,-0.000
 01495,0.00001053,0.00001621,0.00003301,-0.00002009,0.00001772,-0.00000
 783,-0.00000481,0.00003556,-0.00001894,0.00002841,-0.00001713,-0.00000
 192,-0.00000102,-0.00000044,0.00001910,-0.00001517|||@


 THE WORLD OF CHEMICAL REACTIONS IS LIKE A STAGE,
 ON WHICH SCENE AFTER SCENE IS CEASELESSLY PLAYED.
 THE ACTORS ON IT ARE THE ELEMENTS.
   -- CLEMENS WINKLER   BER. 30,13(1897)
 (DISCOVERER OF GERMANIUM, FEB 6, 1886)
 Job cpu time:       0 days  0 hours  0 minutes  6.0 seconds.
 File lengths (MBytes):  RWF=      5 Int=      0 D2E=      0 Chk=      1 Scr=      1
 Normal termination of Gaussian 09 at Sun Mar 13 12:36:49 2022.
