 Entering Link 1 = C:\G09W\l1.exe PID=      6056.
  
 Copyright (c) 1988,1990,1992,1993,1995,1998,2003,2009,2013,
            Gaussian, Inc.  All Rights Reserved.
  
 This is part of the Gaussian(R) 09 program.  It is based on
 the Gaussian(R) 03 system (copyright 2003, Gaussian, Inc.),
 the Gaussian(R) 98 system (copyright 1998, Gaussian, Inc.),
 the Gaussian(R) 94 system (copyright 1995, Gaussian, Inc.),
 the Gaussian 92(TM) system (copyright 1992, Gaussian, Inc.),
 the Gaussian 90(TM) system (copyright 1990, Gaussian, Inc.),
 the Gaussian 88(TM) system (copyright 1988, Gaussian, Inc.),
 the Gaussian 86(TM) system (copyright 1986, Carnegie Mellon
 University), and the Gaussian 82(TM) system (copyright 1983,
 Carnegie Mellon University). Gaussian is a federally registered
 trademark of Gaussian, Inc.
  
 This software contains proprietary and confidential information,
 including trade secrets, belonging to Gaussian, Inc.
  
 This software is provided under written license and may be
 used, copied, transmitted, or stored only in accord with that
 written license.
  
 The following legend is applicable only to US Government
 contracts under FAR:
  
                    RESTRICTED RIGHTS LEGEND
  
 Use, reproduction and disclosure by the US Government is
 subject to restrictions as set forth in subparagraphs (a)
 and (c) of the Commercial Computer Software - Restricted
 Rights clause in FAR 52.227-19.
  
 Gaussian, Inc.
 340 Quinnipiac St., Bldg. 40, Wallingford CT 06492
  
  
 ---------------------------------------------------------------
 Warning -- This program may not be used in any manner that
 competes with the business of Gaussian, Inc. or will provide
 assistance to any competitor of Gaussian, Inc.  The licensee
 of this program is prohibited from giving any competitor of
 Gaussian, Inc. access to this program.  By using this program,
 the user acknowledges that Gaussian, Inc. is engaged in the
 business of creating and licensing software in the field of
 computational chemistry and represents and warrants to the
 licensee that it is not a competitor of Gaussian, Inc. and that
 it will not use this program in any manner prohibited above.
 ---------------------------------------------------------------
  

 Cite this work as:
 Gaussian 09, Revision D.01,
 M. J. Frisch, G. W. Trucks, H. B. Schlegel, G. E. Scuseria, 
 M. A. Robb, J. R. Cheeseman, G. Scalmani, V. Barone, B. Mennucci, 
 G. A. Petersson, H. Nakatsuji, M. Caricato, X. Li, H. P. Hratchian, 
 A. F. Izmaylov, J. Bloino, G. Zheng, J. L. Sonnenberg, M. Hada, 
 M. Ehara, K. Toyota, R. Fukuda, J. Hasegawa, M. Ishida, T. Nakajima, 
 Y. Honda, O. Kitao, H. Nakai, T. Vreven, J. A. Montgomery, Jr., 
 J. E. Peralta, F. Ogliaro, M. Bearpark, J. J. Heyd, E. Brothers, 
 K. N. Kudin, V. N. Staroverov, T. Keith, R. Kobayashi, J. Normand, 
 K. Raghavachari, A. Rendell, J. C. Burant, S. S. Iyengar, J. Tomasi, 
 M. Cossi, N. Rega, J. M. Millam, M. Klene, J. E. Knox, J. B. Cross, 
 V. Bakken, C. Adamo, J. Jaramillo, R. Gomperts, R. E. Stratmann, 
 O. Yazyev, A. J. Austin, R. Cammi, C. Pomelli, J. W. Ochterski, 
 R. L. Martin, K. Morokuma, V. G. Zakrzewski, G. A. Voth, 
 P. Salvador, J. J. Dannenberg, S. Dapprich, A. D. Daniels, 
 O. Farkas, J. B. Foresman, J. V. Ortiz, J. Cioslowski, 
 and D. J. Fox, Gaussian, Inc., Wallingford CT, 2013.
 
 ******************************************
 Gaussian 09:  IA32W-G09RevD.01 24-Apr-2013
                05-Feb-2022 
 ******************************************
 %chk=D:\mindmap\gaussian\calculate\ch3n2_gongzhen _dihedral_180\energy.chk
 %nprocshared=4
 Will use up to    4 processors via shared memory.
 %mem=1GB
 -------------------------------------------------------------
 # apfd/6-311+g(2d,p) pop=full geom=connectivity int=ultrafine
 -------------------------------------------------------------
 1/38=1,57=2/1;
 2/12=2,17=6,18=5,40=1/2;
 3/5=4,6=6,7=112,11=2,16=1,25=1,30=1,74=-44,75=-5/1,2,3;
 4//1;
 5/5=2,38=5/2;
 6/7=3,28=1/1;
 99/5=1,9=1/99;
 ----------------------
 Energy Calculation(GC)
 ----------------------
 Symbolic Z-matrix:
 Charge =  0 Multiplicity = 1
 N                     0.12321  -0.11518  -0.00798 
 N                     1.33495  -0.20407  -0.01557 
 C                    -1.152    -0.02162   0. 
 H                    -1.68233   0.06303  -0.92553 
 H                    -1.69284  -0.02724   0.92329 
 
                          Input orientation:                          
 ---------------------------------------------------------------------
 Center     Atomic      Atomic             Coordinates (Angstroms)
 Number     Number       Type             X           Y           Z
 ---------------------------------------------------------------------
      1          7           0        0.123214   -0.115176   -0.007984
      2          7           0        1.334947   -0.204071   -0.015571
      3          6           0       -1.151997   -0.021619    0.000000
      4          1           0       -1.682332    0.063027   -0.925526
      5          1           0       -1.692843   -0.027237    0.923294
 ---------------------------------------------------------------------
                    Distance matrix (angstroms):
                    1          2          3          4          5
     1  N    0.000000
     2  N    1.215013   0.000000
     3  C    1.278663   2.493676   0.000000
     4  H    2.033134   3.162804   1.070055   0.000000
     5  H    2.042811   3.174941   1.070055   1.851052   0.000000
 Stoichiometry    CH2N2
 Framework group  C1[X(CH2N2)]
 Deg. of freedom     9
 Full point group                 C1      NOp   1
 Largest Abelian subgroup         C1      NOp   1
 Largest concise Abelian subgroup C1      NOp   1
                         Standard orientation:                         
 ---------------------------------------------------------------------
 Center     Atomic      Atomic             Coordinates (Angstroms)
 Number     Number       Type             X           Y           Z
 ---------------------------------------------------------------------
      1          7           0        0.127194   -0.000403   -0.000002
      2          7           0        1.342207   -0.000361    0.000001
      3          6           0       -1.151469   -0.000446    0.000000
      4          1           0       -1.680818    0.929505    0.000002
      5          1           0       -1.696178   -0.921483    0.000002
 ---------------------------------------------------------------------
 Rotational constants (GHZ):    292.7152737     10.7888224     10.4053064
 Standard basis: 6-311+G(2d,p) (5D, 7F)
 There are    99 symmetry adapted cartesian basis functions of A   symmetry.
 There are    93 symmetry adapted basis functions of A   symmetry.
    93 basis functions,   142 primitive gaussians,    99 cartesian basis functions
    11 alpha electrons       11 beta electrons
       nuclear repulsion energy        59.8289995323 Hartrees.
 NAtoms=    5 NActive=    5 NUniq=    5 SFac= 1.00D+00 NAtFMM=   60 NAOKFM=F Big=F
 Integral buffers will be    262144 words long.
 Raffenetti 2 integral format.
 Two-electron integral symmetry is turned on.
 R6APFD:  NTU= -4 IXU= 1 FactS= 1.050
 Nuclear repulsion after empirical dispersion term =       59.8287679605 Hartrees.
 One-electron integrals computed using PRISM.
 NBasis=    93 RedAO= T EigKep=  8.99D-05  NBF=    93
 NBsUse=    93 1.00D-06 EigRej= -1.00D+00 NBFU=    93
 ExpMin= 4.38D-02 ExpMax= 6.29D+03 ExpMxC= 9.49D+02 IAcc=3 IRadAn=         5 AccDes= 0.00D+00
 Harris functional with IExCor= 3731 and IRadAn=       5 diagonalized for initial guess.
 HarFok:  IExCor= 3731 AccDes= 0.00D+00 IRadAn=         5 IDoV= 1 UseB2=F ITyADJ=14
 ICtDFT=  3500011 ScaDFX=  1.000000  1.000000  1.000000  1.000000
 FoFCou: FMM=F IPFlag=           0 FMFlag=      100000 FMFlg1=           0
         NFxFlg=           0 DoJE=T BraDBF=F KetDBF=T FulRan=T
         wScrn=  0.000000 ICntrl=     500 IOpCl=  0 I1Cent=   200000004 NGrid=           0
         NMat0=    1 NMatS0=      1 NMatT0=    0 NMatD0=    1 NMtDS0=    0 NMtDT0=    0
 Petite list used in FoFCou.
 Keep R1 ints in memory in canonical form, NReq=10520328.
 Requested convergence on RMS density matrix=1.00D-08 within 128 cycles.
 Requested convergence on MAX density matrix=1.00D-06.
 Requested convergence on             energy=1.00D-06.
 No special actions if energy rises.
 SCF Done:  E(RAPFD) =  -148.646102276     A.U. after   12 cycles
            NFock= 12  Conv=0.30D-08     -V/T= 2.0054

 **********************************************************************

            Population analysis using the SCF density.

 **********************************************************************

 Orbital symmetries:
       Occupied  (A) (A) (A) (A) (A) (A) (A) (A) (A) (A) (A)
       Virtual   (A) (A) (A) (A) (A) (A) (A) (A) (A) (A) (A) (A)
                 (A) (A) (A) (A) (A) (A) (A) (A) (A) (A) (A) (A)
                 (A) (A) (A) (A) (A) (A) (A) (A) (A) (A) (A) (A)
                 (A) (A) (A) (A) (A) (A) (A) (A) (A) (A) (A) (A)
                 (A) (A) (A) (A) (A) (A) (A) (A) (A) (A) (A) (A)
                 (A) (A) (A) (A) (A) (A) (A) (A) (A) (A) (A) (A)
                 (A) (A) (A) (A) (A) (A) (A) (A) (A) (A)
 The electronic state is 1-A.
 Alpha  occ. eigenvalues --  -14.49789 -14.43106 -10.24375  -1.08966  -0.86933
 Alpha  occ. eigenvalues --   -0.59101  -0.52816  -0.47416  -0.46263  -0.39508
 Alpha  occ. eigenvalues --   -0.24342
 Alpha virt. eigenvalues --   -0.07332  -0.00871   0.01140   0.05032   0.05064
 Alpha virt. eigenvalues --    0.08078   0.10835   0.13834   0.14467   0.14877
 Alpha virt. eigenvalues --    0.18856   0.21487   0.22151   0.22426   0.23430
 Alpha virt. eigenvalues --    0.25647   0.29853   0.38259   0.51107   0.51319
 Alpha virt. eigenvalues --    0.54810   0.55918   0.64408   0.66915   0.75967
 Alpha virt. eigenvalues --    0.76471   0.77229   0.77986   0.79610   0.86266
 Alpha virt. eigenvalues --    0.86690   0.87141   0.87532   0.96626   0.98810
 Alpha virt. eigenvalues --    1.00556   1.14247   1.23478   1.25394   1.26689
 Alpha virt. eigenvalues --    1.29424   1.36024   1.40016   1.68446   1.68903
 Alpha virt. eigenvalues --    1.80126   1.89501   1.94259   2.09027   2.11527
 Alpha virt. eigenvalues --    2.34093   2.35503   2.57100   2.65044   2.81306
 Alpha virt. eigenvalues --    2.86482   3.21659   3.25055   3.39371   3.43751
 Alpha virt. eigenvalues --    3.55325   3.81272   3.84615   3.96805   3.97308
 Alpha virt. eigenvalues --    3.97377   4.12305   4.41715   4.65880   4.66260
 Alpha virt. eigenvalues --    4.69068   4.79183   4.81072   4.85577   4.92240
 Alpha virt. eigenvalues --    5.13042   5.23843   5.27950   5.87774  24.23733
 Alpha virt. eigenvalues --   35.42085  35.81751
     Molecular Orbital Coefficients:
                           1         2         3         4         5
                           O         O         O         O         O
     Eigenvalues --   -14.49789 -14.43106 -10.24375  -1.08966  -0.86933
   1 1   N  1S          0.55761  -0.00285  -0.00010  -0.10146  -0.03516
   2        2S          0.46574  -0.00232  -0.00008  -0.16070  -0.05638
   3        2PX         0.00002   0.00045  -0.00052   0.04934  -0.17710
   4        2PY         0.00000   0.00000   0.00000   0.00002   0.00006
   5        2PZ         0.00000   0.00000   0.00000   0.00000   0.00000
   6        3S          0.01439   0.00180   0.00299   0.44577   0.16012
   7        3PX         0.00037  -0.00122   0.00143   0.06939  -0.25547
   8        3PY         0.00000   0.00000  -0.00001   0.00002   0.00007
   9        3PZ         0.00000   0.00000   0.00000   0.00000   0.00000
  10        4S          0.00479  -0.01060  -0.02061   0.22575   0.12925
  11        4PX         0.00577   0.00964   0.01051  -0.01001  -0.05507
  12        4PY        -0.00001   0.00000  -0.00004   0.00003   0.00006
  13        4PZ         0.00000   0.00000   0.00000   0.00000   0.00000
  14        5S          0.01691   0.00071   0.01222  -0.14288  -0.13875
  15        5PX         0.00760   0.00361   0.00164  -0.04081  -0.01703
  16        5PY        -0.00001  -0.00001  -0.00001   0.00008   0.00010
  17        5PZ         0.00000   0.00000   0.00000   0.00000   0.00000
  18        6D 0       -0.00034  -0.00014  -0.00030  -0.00783  -0.00092
  19        6D+1        0.00000   0.00000   0.00000   0.00000   0.00000
  20        6D-1        0.00000   0.00000   0.00000   0.00000   0.00000
  21        6D+2        0.00043   0.00022   0.00033   0.01311   0.00147
  22        6D-2        0.00000   0.00000   0.00000   0.00000  -0.00001
  23        7D 0       -0.00123   0.00267   0.00403  -0.01066  -0.00068
  24        7D+1        0.00000   0.00000   0.00000   0.00000   0.00000
  25        7D-1        0.00000   0.00000   0.00000   0.00000   0.00000
  26        7D+2        0.00271  -0.00452  -0.00591   0.01298   0.00046
  27        7D-2        0.00000   0.00000   0.00004   0.00003   0.00002
  28 2   N  1S          0.00278   0.55765   0.00001  -0.07217   0.06039
  29        2S          0.00249   0.46589  -0.00026  -0.11370   0.09606
  30        2PX        -0.00062  -0.00169   0.00012  -0.08369   0.04889
  31        2PY         0.00000   0.00000   0.00000   0.00000   0.00002
  32        2PZ         0.00000   0.00000   0.00000   0.00000   0.00000
  33        3S         -0.00030   0.01543   0.00309   0.31123  -0.27501
  34        3PX         0.00276  -0.00246  -0.00246  -0.12023   0.07107
  35        3PY         0.00000   0.00000  -0.00001   0.00000   0.00003
  36        3PZ         0.00000   0.00000   0.00000   0.00000   0.00000
  37        4S         -0.01047  -0.01088  -0.00126   0.18640  -0.20134
  38        4PX         0.00544   0.00305   0.00061  -0.04898   0.03643
  39        4PY         0.00000   0.00000   0.00001  -0.00002  -0.00001
  40        4PZ         0.00000   0.00000   0.00000   0.00000   0.00000
  41        5S         -0.01584   0.00028  -0.00756   0.08822   0.10664
  42        5PX         0.00310  -0.00114   0.00211  -0.01557  -0.03587
  43        5PY         0.00000   0.00000   0.00000  -0.00003  -0.00003
  44        5PZ         0.00000   0.00000   0.00000   0.00000   0.00000
  45        6D 0        0.00006  -0.00036  -0.00010  -0.00694   0.00406
  46        6D+1        0.00000   0.00000   0.00000   0.00000   0.00000
  47        6D-1        0.00000   0.00000   0.00000   0.00000   0.00000
  48        6D+2       -0.00009   0.00057   0.00021   0.01084  -0.00609
  49        6D-2        0.00000   0.00000   0.00000   0.00000   0.00000
  50        7D 0        0.00110   0.00004  -0.00023  -0.01024   0.00397
  51        7D+1        0.00000   0.00000   0.00000   0.00000   0.00000
  52        7D-1        0.00000   0.00000   0.00000   0.00000   0.00000
  53        7D+2       -0.00205   0.00000   0.00015   0.01484  -0.00445
  54        7D-2        0.00000   0.00000   0.00001   0.00001   0.00001
  55 3   C  1S         -0.00001   0.00006   0.56322  -0.02960  -0.08188
  56        2S          0.00017  -0.00029   0.46289  -0.04540  -0.12731
  57        2PX         0.00045  -0.00018   0.00079   0.03840   0.07369
  58        2PY         0.00000   0.00000  -0.00001   0.00005   0.00022
  59        2PZ         0.00000   0.00000   0.00000   0.00000   0.00000
  60        3S         -0.00092   0.00354   0.02237   0.10738   0.33283
  61        3PX        -0.00327   0.00407   0.00480   0.04961   0.10328
  62        3PY         0.00000   0.00000   0.00003   0.00006   0.00024
  63        3PZ         0.00000   0.00000   0.00000   0.00000   0.00000
  64        4S          0.00354   0.01201   0.01020   0.01833   0.16969
  65        4PX        -0.00026   0.00456   0.00471   0.00552   0.02739
  66        4PY         0.00004   0.00001   0.00006  -0.00016  -0.00009
  67        4PZ         0.00000   0.00000   0.00000   0.00000   0.00000
  68        5S         -0.00149  -0.00099  -0.00435   0.03455   0.02137
  69        5PX        -0.00100  -0.00131  -0.00123   0.01732   0.00283
  70        5PY         0.00001   0.00000   0.00002  -0.00002  -0.00004
  71        5PZ         0.00000   0.00000   0.00000   0.00000   0.00000
  72        6D 0        0.00024  -0.00012  -0.00121  -0.00491  -0.01051
  73        6D+1        0.00000   0.00000   0.00000   0.00000   0.00000
  74        6D-1        0.00000   0.00000   0.00000   0.00000   0.00000
  75        6D+2       -0.00056   0.00036   0.00067   0.00674   0.01155
  76        6D-2        0.00000   0.00000   0.00001   0.00000   0.00002
  77        7D 0        0.00000  -0.00057  -0.00245  -0.00288  -0.00714
  78        7D+1        0.00000   0.00000   0.00000   0.00000   0.00000
  79        7D-1        0.00000   0.00000   0.00000   0.00000   0.00000
  80        7D+2       -0.00218   0.00062  -0.00005   0.00962   0.00901
  81        7D-2        0.00001  -0.00001   0.00007   0.00008   0.00012
  82 4   H  1S         -0.00009   0.00003   0.00025   0.00906   0.03971
  83        2S         -0.00201  -0.00028  -0.00498   0.01388   0.04648
  84        3S          0.00094   0.00036   0.00201  -0.00501  -0.00444
  85        4PX        -0.00051  -0.00003  -0.00128   0.00245   0.00578
  86        4PY         0.00033  -0.00019   0.00160  -0.00164  -0.00711
  87        4PZ         0.00000   0.00000   0.00000   0.00000   0.00000
  88 5   H  1S         -0.00009   0.00003   0.00025   0.00889   0.03928
  89        2S         -0.00198  -0.00026  -0.00501   0.01351   0.04582
  90        3S          0.00096   0.00037   0.00210  -0.00508  -0.00458
  91        4PX        -0.00053  -0.00003  -0.00129   0.00252   0.00583
  92        4PY        -0.00032   0.00020  -0.00159   0.00155   0.00693
  93        4PZ         0.00000   0.00000   0.00000   0.00000   0.00000
                           6         7         8         9        10
                           O         O         O         O         O
     Eigenvalues --    -0.59101  -0.52816  -0.47416  -0.46263  -0.39508
   1 1   N  1S          0.04390   0.00026   0.00000   0.02690  -0.00016
   2        2S          0.07159   0.00042   0.00000   0.04406  -0.00026
   3        2PX         0.06803   0.00016   0.00000  -0.13185  -0.00085
   4        2PY         0.00011   0.16241   0.00000  -0.00083   0.15683
   5        2PZ         0.00000   0.00000   0.22414   0.00000   0.00000
   6        3S         -0.21683  -0.00131   0.00000  -0.13745   0.00086
   7        3PX         0.10043   0.00031   0.00000  -0.19861  -0.00134
   8        3PY         0.00020   0.25078   0.00000  -0.00131   0.24316
   9        3PZ         0.00000   0.00000   0.34956   0.00000   0.00000
  10        4S         -0.20548  -0.00168   0.00000  -0.17078   0.00049
  11        4PX         0.01496   0.00058   0.00000  -0.13575  -0.00034
  12        4PY         0.00019   0.15403   0.00000  -0.00094   0.18059
  13        4PZ         0.00000   0.00000   0.22809   0.00000   0.00000
  14        5S          0.19420   0.00465   0.00000   0.12512   0.00166
  15        5PX         0.09442   0.00306   0.00000   0.04515   0.00143
  16        5PY         0.00000  -0.00054   0.00000  -0.00012   0.04318
  17        5PZ         0.00000   0.00000  -0.00336   0.00000   0.00000
  18        6D 0        0.00113   0.00000   0.00000   0.00076   0.00000
  19        6D+1        0.00000   0.00000   0.00286   0.00000   0.00000
  20        6D-1        0.00000   0.00000   0.00000   0.00000   0.00000
  21        6D+2       -0.00198  -0.00001   0.00000  -0.00124  -0.00001
  22        6D-2        0.00000  -0.00205   0.00000  -0.00002   0.01067
  23        7D 0       -0.00206   0.00000   0.00000   0.00098   0.00010
  24        7D+1        0.00000   0.00000   0.00192   0.00000   0.00000
  25        7D-1        0.00000   0.00000   0.00001   0.00000   0.00000
  26        7D+2        0.00300  -0.00001   0.00000   0.00168   0.00000
  27        7D-2       -0.00006  -0.00076   0.00000  -0.00005   0.04205
  28 2   N  1S         -0.03502  -0.00025   0.00000  -0.07512  -0.00011
  29        2S         -0.05638  -0.00040   0.00000  -0.12157  -0.00018
  30        2PX         0.01806   0.00032   0.00000   0.20088   0.00070
  31        2PY         0.00004   0.07824   0.00000  -0.00052   0.16153
  32        2PZ         0.00000   0.00000   0.14152   0.00000   0.00000
  33        3S          0.16490   0.00118   0.00000   0.35033   0.00048
  34        3PX         0.02425   0.00045   0.00000   0.28498   0.00099
  35        3PY         0.00007   0.12281   0.00000  -0.00081   0.24561
  36        3PZ         0.00000   0.00000   0.21878   0.00000   0.00000
  37        4S          0.18580   0.00110   0.00000   0.51397   0.00090
  38        4PX         0.00283   0.00039   0.00000   0.13873   0.00058
  39        4PY         0.00002   0.07834   0.00000  -0.00054   0.18555
  40        4PZ         0.00000   0.00000   0.14905   0.00000   0.00000
  41        5S         -0.21719  -0.00626   0.00000  -0.07547  -0.00236
  42        5PX         0.05886   0.00150   0.00000   0.04806   0.00060
  43        5PY         0.00003   0.00057   0.00000   0.00000   0.00564
  44        5PZ         0.00000   0.00000   0.01174   0.00000   0.00000
  45        6D 0        0.00010   0.00001   0.00000   0.00675   0.00003
  46        6D+1        0.00000   0.00000  -0.01221   0.00000   0.00000
  47        6D-1        0.00000   0.00000   0.00000   0.00000   0.00000
  48        6D+2       -0.00083  -0.00002   0.00000  -0.01318  -0.00004
  49        6D-2       -0.00001  -0.00797   0.00000   0.00005  -0.01128
  50        7D 0        0.00089   0.00001   0.00000   0.00487  -0.00001
  51        7D+1        0.00000   0.00000  -0.03520   0.00000   0.00000
  52        7D-1        0.00000   0.00000   0.00000   0.00000   0.00000
  53        7D+2       -0.00308  -0.00005   0.00000  -0.01336  -0.00002
  54        7D-2       -0.00003  -0.02288   0.00000   0.00012  -0.02726
  55 3   C  1S         -0.06403   0.00006   0.00000  -0.00346   0.00006
  56        2S         -0.10127   0.00009   0.00000  -0.00549   0.00010
  57        2PX        -0.15343   0.00018   0.00000   0.07369   0.00026
  58        2PY        -0.00019   0.16698   0.00000  -0.00006  -0.12736
  59        2PZ         0.00000   0.00000   0.09105   0.00000   0.00000
  60        3S          0.26141  -0.00039   0.00000   0.01987  -0.00027
  61        3PX        -0.20715   0.00005   0.00000   0.09904   0.00033
  62        3PY        -0.00023   0.23290   0.00000  -0.00015  -0.16451
  63        3PZ         0.00000   0.00000   0.14503   0.00000   0.00000
  64        4S          0.24434   0.00179   0.00000  -0.02558   0.00108
  65        4PX        -0.08955   0.00011   0.00000   0.03657   0.00017
  66        4PY        -0.00017   0.10672   0.00000   0.00010  -0.13198
  67        4PZ         0.00000   0.00000   0.08873   0.00000   0.00000
  68        5S          0.02711   0.00065   0.00000  -0.00426   0.00030
  69        5PX        -0.00533   0.00026   0.00000   0.00093   0.00010
  70        5PY        -0.00008   0.01780   0.00000   0.00002  -0.01794
  71        5PZ         0.00000   0.00000   0.01197   0.00000   0.00000
  72        6D 0       -0.00173   0.00000   0.00000  -0.00163   0.00000
  73        6D+1        0.00000   0.00000   0.01349   0.00000   0.00000
  74        6D-1        0.00000   0.00000   0.00000   0.00000   0.00000
  75        6D+2       -0.01519  -0.00021   0.00000   0.00660   0.00025
  76        6D-2        0.00017   0.00179   0.00000  -0.00009   0.01564
  77        7D 0        0.00017  -0.00032   0.00000  -0.00125  -0.00023
  78        7D+1        0.00000   0.00000   0.02463   0.00000   0.00000
  79        7D-1        0.00000   0.00000   0.00007   0.00000   0.00000
  80        7D+2       -0.00615  -0.00001   0.00000  -0.00139   0.00000
  81        7D-2       -0.00010   0.03721   0.00000  -0.00012   0.03323
  82 4   H  1S          0.11909   0.10405   0.00000  -0.02717  -0.10952
  83        2S          0.16212   0.17021   0.00000  -0.04433  -0.16233
  84        3S          0.02187   0.02123   0.00000  -0.00763  -0.06491
  85        4PX         0.00528   0.00915   0.00000  -0.00014  -0.01248
  86        4PY        -0.01988  -0.01334   0.00000   0.00473   0.00831
  87        4PZ         0.00000   0.00000   0.00674   0.00000   0.00000
  88 5   H  1S          0.12067  -0.10323   0.00000  -0.02780   0.10838
  89        2S          0.16446  -0.17040   0.00000  -0.04509   0.15954
  90        3S          0.02191  -0.02034   0.00000  -0.00776   0.06463
  91        4PX         0.00578  -0.00957   0.00000  -0.00031   0.01249
  92        4PY         0.02000  -0.01321   0.00000  -0.00479   0.00781
  93        4PZ         0.00000   0.00000   0.00681   0.00000   0.00000
                          11        12        13        14        15
                           O         V         V         V         V
     Eigenvalues --    -0.24342  -0.07332  -0.00871   0.01140   0.05032
   1 1   N  1S          0.00000   0.00019   0.00000   0.00190  -0.01397
   2        2S          0.00000   0.00032   0.00000   0.00310  -0.02414
   3        2PX         0.00000   0.00042   0.00000   0.00379  -0.02912
   4        2PY         0.00000  -0.19839   0.00000  -0.00004  -0.00404
   5        2PZ         0.03523   0.00000  -0.20834   0.00000   0.00000
   6        3S          0.00000  -0.00108   0.00000  -0.01647   0.10074
   7        3PX         0.00000   0.00063   0.00000  -0.00079  -0.03039
   8        3PY         0.00000  -0.31054   0.00000  -0.00007  -0.00366
   9        3PZ         0.05648   0.00000  -0.32512   0.00000   0.00000
  10        4S          0.00000  -0.00095   0.00000   0.40035   0.08795
  11        4PX         0.00000   0.00015   0.00000  -0.52362  -0.01642
  12        4PY         0.00000  -0.33443   0.00000   0.00013  -0.02069
  13        4PZ         0.05325   0.00000  -0.38181   0.00000   0.00000
  14        5S          0.00000  -0.00838   0.00002  -3.00956   1.95230
  15        5PX         0.00000  -0.00323   0.00002  -3.66151  -0.22914
  16        5PY         0.00000  -0.27105   0.00000  -0.00128   0.13916
  17        5PZ        -0.02027   0.00000  -0.55461  -0.00001   0.00000
  18        6D 0        0.00000  -0.00001   0.00000  -0.00257  -0.00167
  19        6D+1       -0.01727   0.00000   0.00189   0.00000   0.00000
  20        6D-1        0.00000   0.00000  -0.00001   0.00000   0.00000
  21        6D+2        0.00000   0.00002   0.00000   0.00479   0.00395
  22        6D-2        0.00000   0.01238   0.00000   0.00001   0.00009
  23        7D 0        0.00000  -0.00005   0.00000  -0.03052  -0.00742
  24        7D+1       -0.07094   0.00000   0.00586   0.00000   0.00000
  25        7D-1        0.00002   0.00000   0.00002   0.00000   0.00000
  26        7D+2        0.00000   0.00002   0.00000   0.05690   0.01015
  27        7D-2        0.00000   0.04531   0.00000  -0.00010  -0.00095
  28 2   N  1S          0.00000  -0.00003   0.00000  -0.01564  -0.01620
  29        2S          0.00000  -0.00005   0.00000  -0.02544  -0.02743
  30        2PX         0.00000  -0.00028   0.00000  -0.01651   0.01685
  31        2PY         0.00000   0.22803   0.00000   0.00008   0.00946
  32        2PZ        -0.20794   0.00000   0.14719   0.00000   0.00000
  33        3S          0.00000   0.00017   0.00000   0.07347   0.10369
  34        3PX         0.00000  -0.00041   0.00000  -0.01843   0.01046
  35        3PY         0.00000   0.34475   0.00000   0.00013   0.01507
  36        3PZ        -0.30730   0.00000   0.22154   0.00000   0.00000
  37        4S          0.00000   0.00030   0.00000   0.37468   0.07191
  38        4PX         0.00000  -0.00046   0.00000  -0.13663   0.12461
  39        4PY         0.00000   0.39961   0.00000   0.00021   0.01908
  40        4PZ        -0.29170   0.00000   0.29169   0.00000   0.00000
  41        5S          0.00000   0.00737  -0.00003   6.36566   0.15279
  42        5PX         0.00000  -0.00201   0.00001  -1.50143  -0.15360
  43        5PY         0.00000   0.26339   0.00000   0.00013  -0.04566
  44        5PZ        -0.06182   0.00000   0.36525   0.00000   0.00000
  45        6D 0        0.00000  -0.00001   0.00000  -0.00044  -0.00115
  46        6D+1        0.00533   0.00000   0.00683   0.00000   0.00000
  47        6D-1        0.00000   0.00000   0.00000   0.00000   0.00000
  48        6D+2        0.00000   0.00001   0.00000   0.00032   0.00131
  49        6D-2        0.00000   0.00298   0.00000   0.00000  -0.00001
  50        7D 0        0.00000   0.00001   0.00000  -0.00197   0.00235
  51        7D+1        0.00490   0.00000   0.01888   0.00000   0.00000
  52        7D-1        0.00000   0.00000  -0.00001   0.00000   0.00000
  53        7D+2        0.00000  -0.00002   0.00000   0.00485  -0.00104
  54        7D-2        0.00000   0.01268   0.00000  -0.00001  -0.00034
  55 3   C  1S          0.00000  -0.00016   0.00000  -0.03924   0.00803
  56        2S          0.00000  -0.00026   0.00000  -0.06564   0.01301
  57        2PX         0.00000  -0.00004   0.00000  -0.01830   0.02702
  58        2PY         0.00000  -0.00295   0.00000   0.00018   0.01310
  59        2PZ         0.19278   0.00000   0.12539   0.00000   0.00000
  60        3S          0.00000   0.00077   0.00000   0.24693  -0.01977
  61        3PX         0.00000   0.00000   0.00000  -0.09411   0.06650
  62        3PY         0.00000  -0.00939   0.00000   0.00024   0.02746
  63        3PZ         0.29221   0.00000   0.19553   0.00000   0.00000
  64        4S          0.00000   0.00072   0.00000  -0.80284  -0.26145
  65        4PX         0.00000  -0.00085   0.00000  -0.68634  -0.04087
  66        4PY         0.00000  -0.05294   0.00000   0.00138   0.00103
  67        4PZ         0.31314   0.00000   0.36735   0.00001   0.00000
  68        5S          0.00000   0.00180   0.00002  -3.52940  -1.49039
  69        5PX         0.00000   0.00086   0.00000  -0.38482  -1.94123
  70        5PY         0.00000   0.11295   0.00000   0.00170  -0.30268
  71        5PZ         0.06734   0.00000   0.60185   0.00001   0.00001
  72        6D 0        0.00000   0.00003   0.00000  -0.00052  -0.00289
  73        6D+1        0.00588   0.00000  -0.01433   0.00000   0.00000
  74        6D-1        0.00000   0.00000   0.00000   0.00000   0.00000
  75        6D+2        0.00000  -0.00017   0.00000   0.00212   0.00898
  76        6D-2        0.00000  -0.02177   0.00000  -0.00001  -0.00066
  77        7D 0        0.00000   0.00019   0.00000   0.03722   0.00410
  78        7D+1       -0.00159   0.00000  -0.04962   0.00000   0.00000
  79        7D-1        0.00003   0.00000  -0.00004   0.00000   0.00000
  80        7D+2        0.00000  -0.00024   0.00000  -0.06790   0.05214
  81        7D-2        0.00000  -0.04548   0.00000  -0.00027  -0.00237
  82 4   H  1S          0.00000   0.05937   0.00000   0.00286  -0.00592
  83        2S          0.00000   0.12432   0.00000  -0.01858   0.06397
  84        3S          0.00000   0.20311   0.00000  -0.24939  -0.15000
  85        4PX         0.00000  -0.00242   0.00000   0.00732  -0.00555
  86        4PY         0.00000  -0.00115   0.00000  -0.01678  -0.00631
  87        4PZ         0.01807   0.00000   0.02082   0.00000   0.00000
  88 5   H  1S          0.00000  -0.05932   0.00000   0.00302  -0.01618
  89        2S          0.00000  -0.12385   0.00000  -0.01850   0.07262
  90        3S          0.00000  -0.20397   0.00000  -0.24716  -0.33123
  91        4PX         0.00000   0.00239   0.00000   0.00754  -0.00753
  92        4PY         0.00000  -0.00097   0.00000   0.01692   0.00285
  93        4PZ         0.01805   0.00000   0.02091   0.00000   0.00000
                          16        17        18        19        20
                           V         V         V         V         V
     Eigenvalues --     0.05064   0.08078   0.10835   0.13834   0.14467
   1 1   N  1S         -0.00246   0.00000  -0.02371  -0.00051   0.01238
   2        2S         -0.00424   0.00000  -0.04009  -0.00090   0.02173
   3        2PX        -0.00505   0.00000   0.00930  -0.00080   0.01284
   4        2PY         0.02069   0.00000  -0.00074  -0.05751  -0.00186
   5        2PZ         0.00000   0.07915   0.00000   0.00000   0.00000
   6        3S          0.01767   0.00000   0.15869   0.00396  -0.09683
   7        3PX        -0.00530   0.00000   0.00006  -0.00129   0.02364
   8        3PY         0.01719   0.00000  -0.00112  -0.06659  -0.00181
   9        3PZ         0.00000   0.10032   0.00000   0.00000   0.00000
  10        4S          0.00959   0.00000  -0.30234  -0.01443   0.33886
  11        4PX         0.00120   0.00000  -0.65989   0.02696  -0.50190
  12        4PY         0.11937   0.00000  -0.00280  -0.23807  -0.00955
  13        4PZ         0.00000   0.32608   0.00000   0.00000   0.00000
  14        5S          0.32574  -0.00008  13.95071   0.20737  -6.78603
  15        5PX        -0.03762  -0.00002   4.58485   0.17441  -4.59637
  16        5PY        -0.82683   0.00000  -0.00241   0.33023   0.01131
  17        5PZ         0.00000  -0.65330   0.00001   0.00000  -0.00001
  18        6D 0       -0.00026   0.00000   0.00067  -0.00004   0.00149
  19        6D+1        0.00000   0.00239   0.00000   0.00000   0.00000
  20        6D-1        0.00000   0.00000   0.00000   0.00000   0.00000
  21        6D+2        0.00066   0.00000  -0.00216  -0.00013   0.00279
  22        6D-2       -0.00047   0.00000  -0.00007  -0.01039  -0.00047
  23        7D 0       -0.00098   0.00000   0.04108  -0.00051   0.01189
  24        7D+1        0.00000   0.00979   0.00000   0.00000   0.00000
  25        7D-1        0.00000   0.00000   0.00000   0.00000   0.00000
  26        7D+2        0.00122   0.00000  -0.07021  -0.00125   0.03608
  27        7D-2        0.00366   0.00000   0.00016   0.01005   0.00038
  28 2   N  1S         -0.00266   0.00000   0.03059  -0.00009   0.00117
  29        2S         -0.00450   0.00000   0.05047  -0.00015   0.00189
  30        2PX         0.00301   0.00000  -0.00751   0.00133  -0.02767
  31        2PY        -0.05472   0.00000   0.00021  -0.08574  -0.00371
  32        2PZ         0.00000  -0.08793   0.00000   0.00000   0.00000
  33        3S          0.01706   0.00000  -0.17803   0.00067  -0.00665
  34        3PX         0.00189   0.00000  -0.02932   0.00147  -0.02540
  35        3PY        -0.08657   0.00000   0.00033  -0.08910  -0.00389
  36        3PZ         0.00000  -0.12722   0.00000   0.00000   0.00000
  37        4S          0.01101   0.00000   0.35314  -0.01216   0.16560
  38        4PX         0.02143   0.00000  -0.53276   0.01384  -0.24985
  39        4PY        -0.11119   0.00000   0.00044  -0.34646  -0.01486
  40        4PZ         0.00000  -0.24009   0.00000   0.00000   0.00000
  41        5S          0.02096   0.00007 -12.37449  -0.33199   9.39935
  42        5PX        -0.02376  -0.00002   4.69354   0.06591  -2.17499
  43        5PY         0.27634   0.00000   0.00401   1.08356   0.04632
  44        5PZ         0.00000   0.29400   0.00001   0.00000  -0.00001
  45        6D 0       -0.00019   0.00000  -0.00017  -0.00004   0.00118
  46        6D+1        0.00000  -0.00329   0.00000   0.00000   0.00000
  47        6D-1        0.00000   0.00000   0.00000   0.00000   0.00000
  48        6D+2        0.00022   0.00000   0.00124   0.00005  -0.00159
  49        6D-2        0.00019   0.00000   0.00005   0.00659   0.00026
  50        7D 0        0.00036   0.00000  -0.04239   0.00002   0.00571
  51        7D+1        0.00000   0.00292   0.00000   0.00000   0.00000
  52        7D-1        0.00000   0.00000   0.00000   0.00000   0.00000
  53        7D+2       -0.00007   0.00000   0.07336  -0.00060   0.00538
  54        7D-2        0.00219   0.00000   0.00015   0.02812   0.00114
  55 3   C  1S          0.00139   0.00000   0.00380   0.00187  -0.04312
  56        2S          0.00225   0.00000   0.00611   0.00299  -0.06897
  57        2PX         0.00423   0.00000  -0.04116   0.00240  -0.05676
  58        2PY        -0.07425   0.00000   0.00111   0.06167   0.00370
  59        2PZ         0.00000  -0.14871   0.00000   0.00000   0.00000
  60        3S         -0.00341   0.00000  -0.02422  -0.00724   0.15944
  61        3PX         0.01117   0.00000  -0.05400   0.00365  -0.09036
  62        3PY        -0.15705   0.00000   0.00168   0.07316   0.00433
  63        3PZ         0.00000  -0.21097   0.00000   0.00000   0.00000
  64        4S         -0.03896   0.00000  -0.23971  -0.02129   0.70327
  65        4PX        -0.00050   0.00000  -0.51486   0.05689  -1.21575
  66        4PY        -0.00123   0.00000   0.00595   0.44294   0.03241
  67        4PZ         0.00000  -0.52265   0.00000   0.00000   0.00001
  68        5S         -0.24595   0.00001  -0.94416  -0.02465   0.83235
  69        5PX        -0.31974   0.00001  -0.79906   0.03947  -0.71170
  70        5PY         1.80779   0.00000   0.00144  -0.38804  -0.00689
  71        5PZ         0.00000   1.41735   0.00000   0.00000   0.00001
  72        6D 0       -0.00046   0.00000  -0.00769  -0.00061   0.01497
  73        6D+1        0.00000   0.00353   0.00000   0.00000   0.00000
  74        6D-1        0.00000   0.00000   0.00000   0.00000   0.00000
  75        6D+2        0.00160   0.00000   0.00940  -0.00047   0.01243
  76        6D-2        0.00380   0.00000   0.00001   0.00445   0.00007
  77        7D 0        0.00031   0.00000  -0.01026  -0.00397   0.08477
  78        7D+1        0.00000   0.00163   0.00000   0.00000   0.00000
  79        7D-1        0.00000  -0.00007   0.00000   0.00000   0.00000
  80        7D+2        0.01027   0.00000   0.00697   0.00242  -0.04537
  81        7D-2        0.00917   0.00000   0.00059   0.05230   0.00123
  82 4   H  1S         -0.03330   0.00000   0.00786  -0.00739  -0.08479
  83        2S          0.03287   0.00000  -0.03985  -0.01185  -0.12316
  84        3S         -0.57443   0.00000   0.21651  -0.52434  -2.71106
  85        4PX        -0.00627   0.00000  -0.01023   0.01089  -0.00154
  86        4PY         0.00943   0.00000  -0.00348  -0.01134  -0.02259
  87        4PZ         0.00000  -0.00735   0.00000   0.00000   0.00000
  88 5   H  1S          0.02936   0.00000   0.00850   0.01472  -0.08369
  89        2S         -0.00940   0.00000  -0.03915   0.02118  -0.11897
  90        3S          0.49542   0.00000   0.22926   0.74481  -2.63880
  91        4PX         0.00426   0.00000  -0.01031  -0.01109  -0.00210
  92        4PY         0.01094   0.00000   0.00344  -0.01318   0.02195
  93        4PZ         0.00000  -0.00744   0.00000   0.00000   0.00000
                          21        22        23        24        25
                           V         V         V         V         V
     Eigenvalues --     0.14877   0.18856   0.21487   0.22151   0.22426
   1 1   N  1S          0.00000  -0.01857   0.00002   0.01180   0.00000
   2        2S          0.00000  -0.03094   0.00004   0.01993   0.00000
   3        2PX         0.00000  -0.02270  -0.00025   0.05902   0.00000
   4        2PY         0.00000  -0.00101  -0.10524   0.00121   0.00000
   5        2PZ        -0.02649   0.00000   0.00000   0.00000  -0.09687
   6        3S          0.00000   0.05132  -0.00040  -0.05819   0.00000
   7        3PX         0.00000  -0.01234  -0.00010   0.05216   0.00000
   8        3PY         0.00000  -0.00145  -0.12800   0.00233   0.00000
   9        3PZ        -0.02067   0.00000   0.00000   0.00000  -0.10427
  10        4S          0.00000   1.11802   0.00128  -0.30570   0.00000
  11        4PX         0.00000  -0.84972   0.00463  -1.25526  -0.00001
  12        4PY         0.00000  -0.00423  -0.55599   0.00638   0.00000
  13        4PZ        -0.10517   0.00000   0.00000   0.00000  -0.50535
  14        5S          0.00004  -6.29754  -0.02941  -0.86816  -0.00003
  15        5PX         0.00003  -6.28514   0.02078  -9.49635  -0.00008
  16        5PY         0.00000   0.00186   3.86897   0.06575   0.00000
  17        5PZ         0.31356  -0.00001   0.00000  -0.00003   3.97612
  18        6D 0        0.00000   0.01604  -0.00005   0.00477   0.00000
  19        6D+1       -0.00868   0.00000   0.00000   0.00000   0.00377
  20        6D-1        0.00000   0.00000   0.00000   0.00000   0.00000
  21        6D+2        0.00000  -0.02719   0.00012  -0.00367   0.00000
  22        6D-2        0.00000  -0.00003   0.00226   0.00024   0.00000
  23        7D 0        0.00000  -0.00827  -0.00007   0.02884   0.00000
  24        7D+1        0.01375   0.00000   0.00000   0.00000  -0.00279
  25        7D-1        0.00000   0.00000   0.00000   0.00000   0.00001
  26        7D+2        0.00000   0.01415   0.00050  -0.04582   0.00000
  27        7D-2        0.00000  -0.00041   0.01176   0.00026   0.00000
  28 2   N  1S          0.00000   0.03677  -0.00013  -0.00015   0.00000
  29        2S          0.00000   0.06077  -0.00021   0.00170   0.00000
  30        2PX         0.00000   0.09174  -0.00047   0.02275   0.00000
  31        2PY         0.00000   0.00115   0.04575  -0.00251   0.00000
  32        2PZ        -0.10871   0.00000   0.00000   0.00000   0.02427
  33        3S          0.00000  -0.17708   0.00085  -0.06558   0.00000
  34        3PX         0.00000   0.16908  -0.00047  -0.01389   0.00000
  35        3PY         0.00000   0.00145   0.04221  -0.00311   0.00000
  36        3PZ        -0.11417   0.00000   0.00000   0.00000   0.01722
  37        4S          0.00000  -0.65823  -0.00245   1.41710   0.00001
  38        4PX         0.00000   0.06109   0.00134  -0.60738  -0.00001
  39        4PY         0.00000   0.00474   0.27353  -0.01010   0.00000
  40        4PZ        -0.44760   0.00000   0.00000   0.00000   0.19955
  41        5S         -0.00007  14.37611  -0.01930  10.99349   0.00010
  42        5PX         0.00002  -4.25575   0.00076  -0.96068  -0.00001
  43        5PY         0.00000  -0.01112  -2.42303  -0.00753   0.00000
  44        5PZ         1.28209  -0.00001   0.00000   0.00000  -2.28511
  45        6D 0        0.00000   0.00599  -0.00001  -0.00068   0.00000
  46        6D+1        0.00492   0.00000   0.00000   0.00000   0.00175
  47        6D-1        0.00000   0.00000   0.00000   0.00000   0.00000
  48        6D+2        0.00000  -0.00919   0.00002   0.00070   0.00000
  49        6D-2        0.00000   0.00004   0.00204  -0.00012   0.00000
  50        7D 0        0.00000   0.00898   0.00025  -0.03604   0.00000
  51        7D+1        0.03003   0.00000   0.00000   0.00000  -0.02427
  52        7D-1        0.00000   0.00000   0.00000   0.00000   0.00000
  53        7D+2        0.00000  -0.01634  -0.00027   0.07573   0.00000
  54        7D-2        0.00000  -0.00017  -0.02028   0.00006   0.00000
  55 3   C  1S          0.00000   0.03861  -0.00034   0.02358   0.00000
  56        2S          0.00000   0.06556  -0.00055   0.03631   0.00000
  57        2PX         0.00000  -0.09206   0.00001   0.03085   0.00000
  58        2PY         0.00000   0.00181  -0.01516  -0.00577   0.00000
  59        2PZ         0.01267   0.00000   0.00000   0.00000  -0.04593
  60        3S          0.00000  -0.16339   0.00064   0.01666   0.00000
  61        3PX         0.00000  -0.24763  -0.00007   0.02289   0.00000
  62        3PY         0.00000   0.00225  -0.04745  -0.00729   0.00000
  63        3PZ         0.02944   0.00000   0.00000   0.00000  -0.03003
  64        4S          0.00001  -2.69505   0.02658  -3.79000  -0.00003
  65        4PX         0.00000  -1.38113   0.00001  -0.93048  -0.00001
  66        4PY         0.00000   0.01364  -0.22915  -0.04786   0.00000
  67        4PZ         0.05384   0.00000   0.00000   0.00001  -0.32187
  68        5S          0.00002  -5.26648   0.04508  -5.62192  -0.00003
  69        5PX         0.00000  -1.68806   0.01002  -1.46186  -0.00001
  70        5PY         0.00000   0.01216  -1.14020  -0.07363   0.00000
  71        5PZ        -0.78819   0.00000   0.00000   0.00002  -1.43166
  72        6D 0        0.00000   0.00088   0.00001   0.01295   0.00000
  73        6D+1        0.00186   0.00000   0.00000   0.00000  -0.00489
  74        6D-1        0.00000   0.00000   0.00000   0.00000  -0.00001
  75        6D+2        0.00000   0.00567   0.00011  -0.00555   0.00000
  76        6D-2        0.00000   0.00005  -0.00342  -0.00043   0.00000
  77        7D 0        0.00000   0.05006  -0.00032   0.14293   0.00000
  78        7D+1        0.04031   0.00000   0.00000   0.00000   0.01926
  79        7D-1        0.00009   0.00000   0.00000   0.00000   0.00015
  80        7D+2        0.00000  -0.07264   0.00168  -0.09802   0.00000
  81        7D-2        0.00000  -0.00034   0.11218  -0.00112   0.00000
  82 4   H  1S          0.00000   0.00052  -0.01189  -0.02101   0.00000
  83        2S          0.00000   0.01525   0.14286   0.19914   0.00000
  84        3S          0.00000  -0.33122  -0.38372  -1.10059  -0.00002
  85        4PX         0.00000  -0.01199   0.01484   0.02206   0.00000
  86        4PY         0.00000  -0.00654  -0.01296  -0.00190   0.00000
  87        4PZ        -0.00264   0.00000   0.00000   0.00000   0.00181
  88 5   H  1S          0.00000   0.00195   0.01183  -0.02329   0.00000
  89        2S          0.00000   0.01841  -0.14391   0.19228   0.00000
  90        3S          0.00000  -0.29353   0.35576  -1.25567  -0.00002
  91        4PX         0.00000  -0.01275  -0.01541   0.02336   0.00000
  92        4PY         0.00000   0.00701  -0.01281   0.00303   0.00000
  93        4PZ        -0.00269   0.00000   0.00000   0.00000   0.00160
                          26        27        28        29        30
                           V         V         V         V         V
     Eigenvalues --     0.23430   0.25647   0.29853   0.38259   0.51107
   1 1   N  1S          0.00117   0.06847   0.00717   0.03204  -0.00460
   2        2S          0.00190   0.11229   0.01434   0.05504  -0.00725
   3        2PX        -0.00085   0.01543  -0.02518  -0.10792  -0.09565
   4        2PY         0.04708  -0.00070   0.00043   0.00008  -0.05463
   5        2PZ         0.00000   0.00000   0.00000   0.00000   0.00000
   6        3S         -0.00383  -0.23922  -0.13976  -0.21584   0.03720
   7        3PX         0.00060   0.03232  -0.05619  -0.22039  -0.17466
   8        3PY         0.07464  -0.00130   0.00101   0.00020  -0.10096
   9        3PZ         0.00000   0.00000   0.00000   0.00000   0.00000
  10        4S         -0.06008  -3.64492   1.32943   0.94716   0.15825
  11        4PX         0.03376   0.32100  -1.40723  -3.52807  -2.35293
  12        4PY         0.24656  -0.00378   0.00133  -0.00340  -0.10594
  13        4PZ         0.00000   0.00000   0.00000   0.00000   0.00000
  14        5S          0.36986   7.30071 -43.15971  28.70088  -1.95483
  15        5PX         0.39380   3.19280 -19.88753   8.34308  -5.99268
  16        5PY         1.36436  -0.03612   0.01283   0.00091  -0.51108
  17        5PZ         0.00000   0.00000  -0.00005   0.00003   0.00000
  18        6D 0       -0.00022  -0.01053  -0.00570  -0.00895  -0.00311
  19        6D+1        0.00000   0.00000   0.00000   0.00000   0.00000
  20        6D-1        0.00000   0.00000   0.00000   0.00000   0.00000
  21        6D+2        0.00021   0.01949   0.01148   0.01336   0.00534
  22        6D-2        0.00603  -0.00010   0.00009  -0.00005  -0.00898
  23        7D 0       -0.00013   0.03632  -0.08590  -0.02904   0.00536
  24        7D+1        0.00000   0.00000   0.00000   0.00000   0.00000
  25        7D-1        0.00000   0.00000   0.00000   0.00000   0.00000
  26        7D+2       -0.00132  -0.09747   0.18019   0.10409  -0.04944
  27        7D-2        0.02622  -0.00059  -0.00012   0.00098  -0.04358
  28 2   N  1S          0.00021  -0.01157  -0.00046  -0.03463  -0.00938
  29        2S          0.00020  -0.02276  -0.00047  -0.05571  -0.01456
  30        2PX        -0.00272  -0.13542  -0.11750  -0.08249  -0.02541
  31        2PY        -0.07753   0.00175  -0.00064  -0.00021   0.01925
  32        2PZ         0.00000   0.00000   0.00000   0.00000   0.00000
  33        3S          0.00238   0.10942  -0.00618   0.09716  -0.01508
  34        3PX        -0.00439  -0.27806  -0.06545  -0.16213  -0.07835
  35        3PY        -0.09974   0.00231  -0.00087  -0.00068   0.02139
  36        3PZ         0.00000   0.00000   0.00000   0.00000   0.00000
  37        4S         -0.04430   0.27177   0.17347   2.92072   2.04315
  38        4PX         0.00328  -0.74323  -0.91005  -1.38482  -1.23775
  39        4PY        -0.32505   0.00711  -0.00193   0.00047   0.10140
  40        4PZ         0.00000   0.00000   0.00000  -0.00001  -0.00001
  41        5S         -0.52586  -5.06603  49.00770 -26.71209   7.94980
  42        5PX         0.07408   1.14682 -12.46632   7.65479  -1.13753
  43        5PY         0.20774  -0.00702  -0.00111   0.00362   0.27839
  44        5PZ         0.00000   0.00001  -0.00004   0.00002  -0.00001
  45        6D 0        0.00016   0.00450   0.00328   0.00921   0.00544
  46        6D+1        0.00000   0.00000   0.00000   0.00000   0.00000
  47        6D-1        0.00000   0.00000   0.00000   0.00000   0.00000
  48        6D+2       -0.00026  -0.00817  -0.00545  -0.01599  -0.01083
  49        6D-2       -0.00356   0.00005  -0.00003   0.00003   0.00426
  50        7D 0        0.00041  -0.02351   0.00460  -0.01846  -0.01453
  51        7D+1        0.00000   0.00000   0.00000   0.00000   0.00000
  52        7D-1        0.00000   0.00000   0.00000   0.00000   0.00000
  53        7D+2       -0.00160   0.03416   0.00131   0.02021   0.05475
  54        7D-2        0.00807  -0.00021  -0.00024   0.00001   0.03886
  55 3   C  1S         -0.00173  -0.03759   0.00552  -0.00481   0.03687
  56        2S         -0.00287  -0.06710   0.01036  -0.00916   0.06497
  57        2PX        -0.00065   0.11050   0.13283   0.10414   0.05918
  58        2PY        -0.18455   0.00408  -0.00159  -0.00052   0.03700
  59        2PZ         0.00000   0.00000   0.00000   0.00000   0.00000
  60        3S          0.00508   0.22117   0.02336   0.09005  -0.13634
  61        3PX         0.00353   0.34236  -0.00358  -0.05013   0.15614
  62        3PY        -0.20157   0.00303  -0.00208   0.00025   0.15831
  63        3PZ         0.00000   0.00000   0.00000   0.00000   0.00000
  64        4S          0.14702   1.81874  -3.51335  -4.37505  -3.65903
  65        4PX         0.03589   1.77385  -0.94621  -3.87986  -2.04796
  66        4PY        -1.61311   0.03421  -0.00575   0.00359   0.80038
  67        4PZ         0.00000   0.00000   0.00001   0.00001   0.00001
  68        5S          0.06984  -1.86912  -3.00556  -1.53923  -1.38392
  69        5PX        -0.05343  -1.71878   0.45675   0.05754  -0.95443
  70        5PY        -2.45950   0.07361  -0.01780  -0.01421  -0.24435
  71        5PZ         0.00000   0.00000   0.00001  -0.00001   0.00000
  72        6D 0       -0.00025   0.00477   0.00409  -0.00921  -0.02928
  73        6D+1        0.00000   0.00000   0.00000   0.00000   0.00000
  74        6D-1        0.00000   0.00000   0.00000   0.00000   0.00000
  75        6D+2       -0.00036  -0.01721   0.00202   0.03389   0.00987
  76        6D-2       -0.01151   0.00030  -0.00014  -0.00022   0.01518
  77        7D 0       -0.00459  -0.05112   0.13626   0.18986  -0.07160
  78        7D+1        0.00000   0.00000   0.00000   0.00000   0.00000
  79        7D-1        0.00000   0.00000   0.00000   0.00000   0.00000
  80        7D+2        0.00352   0.09027  -0.15203  -0.33926  -0.17262
  81        7D-2       -0.00782   0.00136  -0.00224   0.00079  -0.03615
  82 4   H  1S          0.02734   0.00027  -0.00920  -0.03789   0.04768
  83        2S          0.02828   0.10019   0.04300  -0.52123   0.31492
  84        3S          3.06267   0.39743  -0.68285   0.74196  -2.04746
  85        4PX        -0.02108   0.03543  -0.00927  -0.04204   0.01870
  86        4PY         0.02288   0.00217   0.00778   0.00600   0.04583
  87        4PZ         0.00000   0.00000   0.00000   0.00000   0.00000
  88 5   H  1S         -0.02710  -0.00020  -0.00986  -0.03638   0.14422
  89        2S         -0.03771   0.08952   0.04672  -0.51469   1.82948
  90        3S         -2.99764   0.57974  -0.72183   0.71035  -3.27401
  91        4PX         0.02192   0.03450  -0.00889  -0.04273  -0.00902
  92        4PY         0.02257  -0.00518  -0.00683  -0.00381   0.02587
  93        4PZ         0.00000   0.00000   0.00000   0.00000   0.00000
                          31        32        33        34        35
                           V         V         V         V         V
     Eigenvalues --     0.51319   0.54810   0.55918   0.64408   0.66915
   1 1   N  1S         -0.00307   0.00000   0.00000  -0.00362  -0.00004
   2        2S         -0.00487   0.00000   0.00000  -0.00381  -0.00005
   3        2PX        -0.05287   0.00000   0.00000  -0.19929  -0.00374
   4        2PY         0.09708   0.00000   0.00000   0.00050   0.00326
   5        2PZ         0.00000   0.03847   0.00005   0.00000   0.00000
   6        3S          0.02112   0.00000   0.00000   0.11233   0.00551
   7        3PX        -0.09590   0.00000   0.00000  -0.43262  -0.01146
   8        3PY         0.17845   0.00000   0.00000   0.00021   0.07300
   9        3PZ         0.00000   0.10312  -0.00001   0.00000   0.00000
  10        4S          0.15654   0.00000   0.00000  -6.31977  -0.22223
  11        4PX        -1.33785   0.00000   0.00000  -0.58936  -0.00172
  12        4PY         0.20250   0.00000   0.00000   0.01392  -0.40866
  13        4PZ         0.00000  -0.30198  -0.00187  -0.00001   0.00000
  14        5S         -0.84161  -0.00018   0.00000 -14.78429  -0.37342
  15        5PX        -3.24510  -0.00007   0.00000  -6.53507  -0.09506
  16        5PY         0.94498   0.00000   0.00001   0.05521  -2.18710
  17        5PZ         0.00000  -0.73549  -0.00488  -0.00002   0.00000
  18        6D 0       -0.00173   0.00000   0.00000   0.00462   0.00019
  19        6D+1        0.00000   0.00642  -0.00004   0.00000   0.00000
  20        6D-1        0.00000  -0.00003   0.01044   0.00000   0.00000
  21        6D+2        0.00272   0.00000   0.00000   0.00144  -0.00001
  22        6D-2        0.01625   0.00000   0.00000   0.00021   0.00087
  23        7D 0        0.00066   0.00000   0.00000   0.28595   0.01465
  24        7D+1        0.00000   0.09315   0.00095   0.00000   0.00000
  25        7D-1        0.00000  -0.00061   0.19630   0.00000   0.00000
  26        7D+2       -0.02624   0.00000   0.00000  -0.45977  -0.01477
  27        7D-2        0.07598   0.00000   0.00000  -0.00366   0.09737
  28 2   N  1S         -0.00510   0.00000   0.00000  -0.01620  -0.00054
  29        2S         -0.00789   0.00000   0.00000  -0.02554  -0.00091
  30        2PX        -0.01279   0.00000   0.00000   0.01379   0.00252
  31        2PY        -0.03451   0.00000   0.00000  -0.00071   0.03360
  32        2PZ         0.00000  -0.03508   0.00000   0.00000   0.00000
  33        3S         -0.00888   0.00000   0.00000  -0.08090  -0.00100
  34        3PX        -0.04061   0.00000   0.00000  -0.03762   0.00226
  35        3PY        -0.03764   0.00000   0.00000  -0.00065   0.08077
  36        3PZ         0.00000  -0.10153  -0.00023   0.00000   0.00000
  37        4S          1.13829   0.00000   0.00000   3.49621   0.10597
  38        4PX        -0.68257   0.00000   0.00000  -3.11826  -0.09861
  39        4PY        -0.18626   0.00000   0.00000  -0.00263  -0.03615
  40        4PZ         0.00000   0.11488   0.00032  -0.00001   0.00000
  41        5S          4.16814   0.00019   0.00000  15.60061   0.28350
  42        5PX        -0.56987  -0.00005   0.00000  -3.06359  -0.05009
  43        5PY        -0.50637   0.00000   0.00000  -0.02200   0.84401
  44        5PZ        -0.00001   0.55655   0.00311  -0.00001   0.00000
  45        6D 0        0.00299   0.00000   0.00000   0.01758   0.00053
  46        6D+1        0.00000   0.00114   0.00001   0.00000   0.00000
  47        6D-1        0.00000   0.00000   0.00087   0.00000   0.00000
  48        6D+2       -0.00598   0.00000   0.00000  -0.03139  -0.00087
  49        6D-2       -0.00772   0.00000   0.00000  -0.00007  -0.00088
  50        7D 0       -0.00790   0.00000   0.00000  -0.08963  -0.00191
  51        7D+1        0.00000  -0.03131   0.00026   0.00000   0.00000
  52        7D-1        0.00000  -0.00019   0.06593   0.00000   0.00000
  53        7D+2        0.02988   0.00000   0.00000   0.17538   0.00817
  54        7D-2       -0.06923   0.00000   0.00000  -0.00126   0.00451
  55 3   C  1S          0.02088   0.00000   0.00000   0.00377   0.00071
  56        2S          0.03684   0.00000   0.00000  -0.00090   0.00113
  57        2PX         0.03301   0.00000   0.00000  -0.22461  -0.00555
  58        2PY        -0.06756   0.00000   0.00000   0.00682  -0.25666
  59        2PZ         0.00000  -0.23570  -0.00099   0.00000   0.00000
  60        3S         -0.08107   0.00000   0.00000   0.17533  -0.00495
  61        3PX         0.08180   0.00000   0.00000  -0.14733   0.00108
  62        3PY        -0.28652   0.00000   0.00000   0.01872  -0.76632
  63        3PZ         0.00000  -0.88369  -0.00334   0.00000   0.00000
  64        4S         -2.06221   0.00001   0.00000   0.64610   0.08558
  65        4PX        -1.21891   0.00001   0.00000   3.25132   0.14458
  66        4PY        -1.46239   0.00000   0.00000  -0.12099   4.43210
  67        4PZ         0.00001   1.82100   0.00780   0.00000   0.00000
  68        5S         -0.75317  -0.00001   0.00000  -0.62082   0.04325
  69        5PX        -0.51861   0.00000   0.00000   0.03468   0.03356
  70        5PY         0.42231   0.00000   0.00000  -0.03119   1.52298
  71        5PZ         0.00000  -0.50346  -0.00101   0.00000   0.00000
  72        6D 0       -0.01651   0.00000   0.00000  -0.00810  -0.00024
  73        6D+1        0.00000  -0.01355  -0.00006   0.00000   0.00000
  74        6D-1        0.00000  -0.00003   0.00282   0.00000   0.00000
  75        6D+2        0.00526   0.00000   0.00000   0.02196   0.00043
  76        6D-2       -0.02674   0.00000   0.00000   0.00009  -0.00818
  77        7D 0       -0.04562   0.00000   0.00000  -0.08072   0.00047
  78        7D+1        0.00000  -0.11594   0.00169  -0.00001   0.00000
  79        7D-1        0.00000  -0.00274   0.87926   0.00000   0.00000
  80        7D+2       -0.10093   0.00000   0.00000   0.86406   0.01519
  81        7D-2        0.06318   0.00000   0.00000   0.00546  -0.45709
  82 4   H  1S          0.13878   0.00000   0.00000  -0.01714   0.05771
  83        2S          1.94837   0.00000   0.00000   0.39538  -0.70801
  84        3S         -2.56360   0.00000  -0.00001   0.51631  -2.93025
  85        4PX        -0.02379   0.00000   0.00000   0.03779  -0.04068
  86        4PY        -0.05687   0.00000   0.00000  -0.06196   0.10953
  87        4PZ         0.00000   0.00191   0.03604   0.00000   0.00000
  88 5   H  1S         -0.03198   0.00000   0.00000  -0.01515  -0.05658
  89        2S         -0.77278   0.00000   0.00000   0.34643   0.73229
  90        3S         -0.42876   0.00000   0.00001   0.39016   2.97713
  91        4PX         0.02506   0.00000   0.00000   0.03938   0.04252
  92        4PY        -0.06976   0.00000   0.00000   0.05422   0.10992
  93        4PZ         0.00000   0.00296  -0.03549   0.00000   0.00000
                          36        37        38        39        40
                           V         V         V         V         V
     Eigenvalues --     0.75967   0.76471   0.77229   0.77986   0.79610
   1 1   N  1S          0.00772   0.00307  -0.00008   0.00000   0.00000
   2        2S          0.01371   0.00752  -0.00017   0.00000   0.00000
   3        2PX        -0.07276   0.12924  -0.00275   0.00000   0.00000
   4        2PY        -0.00098  -0.00265  -0.10503   0.00000   0.00000
   5        2PZ         0.00000   0.00000   0.00000  -0.11766  -0.09249
   6        3S         -0.12313  -0.00790  -0.00001   0.00000   0.00000
   7        3PX        -0.13114   0.06749  -0.00175   0.00000  -0.00001
   8        3PY        -0.00226  -0.01042  -0.39294   0.00000   0.00000
   9        3PZ         0.00000   0.00000   0.00000  -0.44443  -0.27332
  10        4S          1.27504  -2.79204   0.06135   0.00002   0.00004
  11        4PX         0.97308  -2.17298   0.02978   0.00000   0.00011
  12        4PY        -0.00458   0.01449   1.05542   0.00000   0.00000
  13        4PZ         0.00001   0.00000   0.00000   0.73420  -0.05540
  14        5S         -7.56647  -2.34509   0.00306  -0.00008  -0.00024
  15        5PX        -4.30431   1.74564  -0.08144  -0.00005  -0.00009
  16        5PY        -0.02933  -0.00632  -1.17858   0.00000   0.00000
  17        5PZ         0.00000  -0.00002   0.00000  -0.82829  -0.98410
  18        6D 0       -0.01164  -0.00312   0.00014   0.00000   0.00000
  19        6D+1        0.00000   0.00000   0.00000  -0.00343  -0.04276
  20        6D-1        0.00000   0.00000   0.00000  -0.00001  -0.00004
  21        6D+2       -0.00832  -0.01113   0.00018   0.00000   0.00000
  22        6D-2       -0.00023  -0.00011   0.01726   0.00000   0.00000
  23        7D 0       -0.50901   0.09196  -0.00182   0.00000  -0.00001
  24        7D+1        0.00000   0.00000   0.00000  -0.20374   0.17525
  25        7D-1        0.00000   0.00000   0.00000  -0.00038  -0.00231
  26        7D+2       -0.05973  -0.46417   0.01034   0.00000   0.00000
  27        7D-2        0.00249  -0.00379  -0.27206   0.00000   0.00000
  28 2   N  1S         -0.00027  -0.01042   0.00025   0.00000   0.00000
  29        2S          0.00139  -0.01998   0.00050   0.00000   0.00000
  30        2PX        -0.09073   0.20525  -0.00414   0.00000   0.00000
  31        2PY         0.00114  -0.00486  -0.21364   0.00000   0.00000
  32        2PZ         0.00000   0.00000   0.00000  -0.19623   0.13159
  33        3S         -0.02041   0.03585  -0.00184   0.00000   0.00000
  34        3PX        -0.10703   0.38682  -0.00774   0.00000   0.00000
  35        3PY         0.00268  -0.01717  -0.69020   0.00000   0.00000
  36        3PZ         0.00000   0.00000   0.00000  -0.69358   0.30868
  37        4S         -1.17751   3.11833  -0.05268  -0.00001  -0.00009
  38        4PX         0.89778  -2.99340   0.05606   0.00000   0.00006
  39        4PY        -0.00386   0.03275   1.25883   0.00000   0.00000
  40        4PZ         0.00000  -0.00001   0.00000   1.36966  -0.55786
  41        5S          9.06355  -0.94252   0.09293   0.00010   0.00022
  42        5PX        -2.27510   0.57630  -0.02620  -0.00002  -0.00006
  43        5PY         0.01123  -0.01614  -0.34899   0.00000   0.00000
  44        5PZ        -0.00001   0.00001   0.00000  -0.46700   0.69856
  45        6D 0       -0.00312   0.00783  -0.00013   0.00000   0.00000
  46        6D+1        0.00000   0.00000   0.00000   0.01735   0.00104
  47        6D-1        0.00000   0.00000   0.00000   0.00000  -0.00002
  48        6D+2       -0.00215  -0.01595   0.00028   0.00000   0.00000
  49        6D-2        0.00000   0.00042   0.01255   0.00000   0.00000
  50        7D 0       -0.17513  -0.25233   0.00566   0.00000   0.00000
  51        7D+1        0.00000   0.00000   0.00000   0.09166   0.30207
  52        7D-1        0.00000   0.00000   0.00000  -0.00023  -0.00155
  53        7D+2       -0.27322   0.21299  -0.00388   0.00000  -0.00001
  54        7D-2        0.00137   0.00148  -0.03753   0.00000   0.00000
  55 3   C  1S         -0.02316   0.03828  -0.00112   0.00000   0.00000
  56        2S         -0.04645   0.07506  -0.00213   0.00000   0.00000
  57        2PX        -0.06989   0.06600  -0.00221   0.00000   0.00000
  58        2PY        -0.00241   0.00109  -0.02703   0.00000   0.00000
  59        2PZ         0.00000   0.00000   0.00000   0.00104  -0.07284
  60        3S          0.25553  -0.83554   0.02391   0.00000   0.00001
  61        3PX        -0.40663   0.14544  -0.00415   0.00000   0.00000
  62        3PY        -0.00662   0.00642  -0.05413   0.00000   0.00000
  63        3PZ         0.00000   0.00000   0.00000  -0.10051  -0.20884
  64        4S          0.42599   3.08654  -0.11588  -0.00002   0.00008
  65        4PX        -0.15711  -0.73535   0.02199   0.00000   0.00004
  66        4PY         0.07043  -0.00214   0.55371   0.00000   0.00000
  67        4PZ        -0.00001   0.00001   0.00000  -0.08703   0.83402
  68        5S         -0.86450   2.05707  -0.05763  -0.00002   0.00000
  69        5PX         0.01992   0.68656  -0.01177   0.00000   0.00000
  70        5PY         0.02202   0.00292   0.85954   0.00000   0.00000
  71        5PZ         0.00000   0.00000   0.00000   0.51130   0.16513
  72        6D 0        0.00262   0.00058   0.00003   0.00000   0.00000
  73        6D+1        0.00000   0.00000   0.00000   0.00164   0.01397
  74        6D-1        0.00000   0.00000   0.00000   0.00002   0.00001
  75        6D+2        0.00005  -0.00929   0.00019   0.00000   0.00000
  76        6D-2        0.00004   0.00001  -0.00597   0.00000   0.00000
  77        7D 0       -0.70186  -0.24223   0.00710   0.00000  -0.00002
  78        7D+1       -0.00002   0.00001   0.00000   0.05204   1.05240
  79        7D-1        0.00000   0.00000   0.00000  -0.00027  -0.00089
  80        7D+2       -0.32241  -0.54640   0.00864   0.00000   0.00000
  81        7D-2       -0.00113  -0.00009  -0.70833   0.00000   0.00000
  82 4   H  1S         -0.03444   0.01206   0.01830   0.00000   0.00000
  83        2S         -0.97644  -0.86658  -0.41229   0.00000  -0.00001
  84        3S         -0.18106  -0.21798  -0.56587   0.00000   0.00000
  85        4PX        -0.01381  -0.05230  -0.00398   0.00000   0.00000
  86        4PY         0.01554   0.09868   0.05550   0.00000   0.00000
  87        4PZ         0.00000   0.00000   0.00000  -0.01986  -0.03565
  88 5   H  1S         -0.03451   0.01199  -0.01939   0.00000   0.00000
  89        2S         -0.94732  -0.84614   0.46539   0.00000  -0.00001
  90        3S         -0.09556  -0.24122   0.58358   0.00000   0.00000
  91        4PX        -0.01594  -0.05392   0.01050   0.00000   0.00000
  92        4PY        -0.01144  -0.09696   0.06134   0.00000   0.00000
  93        4PZ         0.00000   0.00000   0.00000  -0.02074  -0.03765
                          41        42        43        44        45
                           V         V         V         V         V
     Eigenvalues --     0.86266   0.86690   0.87141   0.87532   0.96626
   1 1   N  1S         -0.00226  -0.03441   0.00000   0.00000  -0.03147
   2        2S         -0.00411  -0.06299   0.00000   0.00000  -0.06376
   3        2PX         0.01312   0.18231   0.00000   0.00000   0.02206
   4        2PY        -0.17990   0.01217  -0.00001   0.00000  -0.00059
   5        2PZ         0.00000   0.00000  -0.00184  -0.20041   0.00000
   6        3S          0.02310   0.35604   0.00000   0.00000   0.62247
   7        3PX         0.02112   0.29899   0.00000   0.00000   0.02193
   8        3PY        -0.61203   0.04225  -0.00002   0.00000  -0.00348
   9        3PZ         0.00000   0.00000  -0.00639  -0.71948   0.00000
  10        4S         -0.06249  -1.03146   0.00000   0.00002  -3.69580
  11        4PX        -0.49713  -7.16323   0.00001   0.00000   0.17081
  12        4PY         2.30350  -0.15228   0.00008   0.00000   0.01328
  13        4PZ         0.00000   0.00000   0.01786   2.41640   0.00000
  14        5S         -0.37843  -5.98338   0.00001   0.00013   6.83720
  15        5PX        -0.73587 -11.09984   0.00002   0.00007   2.01774
  16        5PY        -1.54233   0.10465  -0.00004   0.00000  -0.00447
  17        5PZ         0.00000  -0.00002  -0.01655  -1.88578   0.00000
  18        6D 0        0.00012   0.00071   0.00000   0.00000  -0.01003
  19        6D+1        0.00000   0.00000  -0.00005   0.01721   0.00000
  20        6D-1        0.00000   0.00000   0.00848  -0.00007   0.00000
  21        6D+2        0.00027   0.00425   0.00000   0.00000   0.01964
  22        6D-2        0.01900  -0.00118   0.00000   0.00000   0.00013
  23        7D 0        0.00068  -0.00985   0.00000   0.00000  -0.06370
  24        7D+1        0.00000   0.00000   0.00143   0.13737   0.00000
  25        7D-1       -0.00002   0.00000   0.58832  -0.00417   0.00000
  26        7D+2       -0.00083  -0.00198   0.00000   0.00000  -0.40292
  27        7D-2        0.08892  -0.00858   0.00000   0.00000   0.00075
  28 2   N  1S         -0.00010  -0.00313   0.00000   0.00000   0.00408
  29        2S         -0.00009  -0.00457   0.00000   0.00000   0.00342
  30        2PX         0.01241   0.17193   0.00000   0.00000   0.04140
  31        2PY         0.09941  -0.00594   0.00000   0.00000  -0.00047
  32        2PZ         0.00000   0.00000   0.00081   0.06354   0.00000
  33        3S         -0.00594  -0.06653   0.00000   0.00000   0.00569
  34        3PX         0.01790   0.24404   0.00000   0.00000  -0.12436
  35        3PY         0.40735  -0.02444   0.00001   0.00000  -0.00131
  36        3PZ         0.00000   0.00001   0.00263   0.26917   0.00000
  37        4S          0.38164   5.48921  -0.00001  -0.00001   1.01804
  38        4PX        -0.25466  -3.65781   0.00001   0.00002  -0.62696
  39        4PY        -1.56617   0.10036  -0.00005   0.00000  -0.00127
  40        4PZ         0.00000  -0.00002  -0.01089  -1.32991   0.00000
  41        5S          1.17356  17.80405  -0.00004  -0.00015  -5.55990
  42        5PX        -0.21104  -3.24998   0.00001   0.00003   1.48182
  43        5PY         1.22194  -0.08032   0.00004   0.00000   0.00067
  44        5PZ         0.00000  -0.00001   0.00997   1.15114   0.00000
  45        6D 0        0.00015   0.00188   0.00000   0.00000  -0.01103
  46        6D+1        0.00000   0.00000  -0.00013  -0.02127   0.00000
  47        6D-1        0.00000   0.00000   0.00755  -0.00005   0.00000
  48        6D+2       -0.00029  -0.00398   0.00000   0.00000   0.00519
  49        6D-2       -0.02328   0.00154   0.00000   0.00000  -0.00007
  50        7D 0       -0.01296  -0.19339   0.00000   0.00000  -0.68627
  51        7D+1        0.00000   0.00000   0.00043  -0.11966   0.00000
  52        7D-1       -0.00002   0.00000   0.62582  -0.00457   0.00000
  53        7D+2        0.02967   0.42757   0.00000   0.00000  -0.14195
  54        7D-2       -0.14834   0.01006  -0.00001   0.00000  -0.00024
  55 3   C  1S         -0.00571  -0.08653   0.00000   0.00000   0.00514
  56        2S         -0.01126  -0.17179   0.00000   0.00000   0.00416
  57        2PX         0.00223   0.02251   0.00000   0.00000   0.03504
  58        2PY         0.03645  -0.00294   0.00000   0.00000  -0.00087
  59        2PZ         0.00000   0.00000  -0.00016   0.00653   0.00000
  60        3S          0.09836   1.48650   0.00000  -0.00001   0.19881
  61        3PX        -0.02128  -0.38602   0.00000   0.00000   0.63545
  62        3PY         0.26240  -0.01998   0.00001   0.00000  -0.00994
  63        3PZ         0.00000   0.00000  -0.00092  -0.04045   0.00000
  64        4S         -0.82128 -11.93979   0.00002   0.00001  -0.03524
  65        4PX        -0.22334  -3.13911   0.00001   0.00000   1.28636
  66        4PY        -0.67646   0.04074  -0.00003   0.00000  -0.03663
  67        4PZ         0.00000   0.00002  -0.00153  -0.50193   0.00000
  68        5S         -0.38610  -5.77058   0.00001   0.00001  -0.59191
  69        5PX        -0.08970  -1.28318   0.00000   0.00000  -0.67526
  70        5PY         0.14580  -0.01084   0.00000   0.00000   0.00725
  71        5PZ         0.00000   0.00001   0.00538   0.64854   0.00000
  72        6D 0       -0.00026  -0.00501   0.00000   0.00000  -0.00888
  73        6D+1        0.00000   0.00000   0.00000  -0.00416   0.00000
  74        6D-1        0.00000   0.00000  -0.00307   0.00004   0.00000
  75        6D+2       -0.00014  -0.00194   0.00000   0.00000   0.02961
  76        6D-2       -0.00136   0.00022   0.00000   0.00000  -0.00014
  77        7D 0        0.02159   0.26159   0.00000   0.00000   0.70919
  78        7D+1        0.00000   0.00001   0.00038  -0.48888   0.00000
  79        7D-1        0.00001   0.00000  -0.32397   0.00237   0.00000
  80        7D+2       -0.01788  -0.20283   0.00000   0.00000   0.81409
  81        7D-2       -0.74250   0.04606  -0.00003   0.00000   0.00847
  82 4   H  1S         -0.00295  -0.01861   0.00000   0.00000   0.00837
  83        2S         -0.49294   0.67931  -0.00002   0.00000   1.27723
  84        3S          0.73235  -0.53520   0.00003   0.00001  -0.14693
  85        4PX         0.00301   0.08344   0.00000   0.00000   0.03101
  86        4PY         0.04265  -0.09360   0.00000   0.00000  -0.06319
  87        4PZ         0.00000   0.00000  -0.07740  -0.00409   0.00000
  88 5   H  1S         -0.00008  -0.01877   0.00000   0.00000   0.00802
  89        2S          0.59257   0.60528   0.00002   0.00000   1.21936
  90        3S         -0.80241  -0.43622  -0.00003   0.00001  -0.14226
  91        4PX         0.01193   0.08361   0.00000   0.00000   0.03090
  92        4PY         0.05510   0.08729   0.00000   0.00000   0.05918
  93        4PZ         0.00000   0.00000   0.07747  -0.00565   0.00000
                          46        47        48        49        50
                           V         V         V         V         V
     Eigenvalues --     0.98810   1.00556   1.14247   1.23478   1.25394
   1 1   N  1S          0.04580  -0.00124   0.06098   0.00000  -0.04298
   2        2S          0.09483  -0.00273   0.13043   0.00000  -0.08917
   3        2PX         0.08222  -0.00110  -0.06711   0.00000  -0.07639
   4        2PY         0.00373   0.10893  -0.00031   0.00000   0.00061
   5        2PZ         0.00000   0.00000   0.00000   0.00005   0.00000
   6        3S         -0.90207   0.03130  -1.59061   0.00000   0.82322
   7        3PX        -0.13698   0.00443   0.16148   0.00000  -0.12250
   8        3PY         0.01759   0.52559  -0.00272   0.00000   0.00402
   9        3PZ         0.00000   0.00000   0.00000   0.00014   0.00000
  10        4S          6.45733  -0.24947  12.13851   0.00001   0.28809
  11        4PX        -0.17550   0.02201  -2.72234   0.00000  -9.53793
  12        4PY        -0.02992  -0.95179   0.00018   0.00003   0.03662
  13        4PZ         0.00001   0.00000   0.00000  -0.00545  -0.00003
  14        5S         -1.62484  -0.16181 -16.37178   0.00001  16.35181
  15        5PX        -2.47142  -0.02391  -8.96194   0.00000   3.03099
  16        5PY         0.00326  -0.13761   0.01442   0.00000  -0.00146
  17        5PZ         0.00000   0.00000  -0.00001   0.00035   0.00002
  18        6D 0        0.01686  -0.00080   0.03150   0.00000   0.00410
  19        6D+1        0.00000   0.00000   0.00000   0.00020   0.00000
  20        6D-1        0.00000   0.00000   0.00000  -0.01070   0.00000
  21        6D+2       -0.02685   0.00096  -0.04961   0.00000  -0.00298
  22        6D-2        0.00112   0.03547   0.00031   0.00000  -0.00093
  23        7D 0       -0.12739   0.00500  -0.45051   0.00000   0.33029
  24        7D+1        0.00000   0.00000   0.00001   0.00174   0.00000
  25        7D-1        0.00000   0.00000   0.00000  -0.80415   0.00000
  26        7D+2        0.18375  -0.00762   1.12253   0.00000  -0.18768
  27        7D-2       -0.00681  -0.17408   0.00412  -0.00001  -0.01809
  28 2   N  1S          0.07966  -0.00271  -0.06781   0.00000   0.02470
  29        2S          0.16198  -0.00555  -0.12548   0.00000   0.05089
  30        2PX         0.04047  -0.00035  -0.07991   0.00000  -0.09554
  31        2PY        -0.00128  -0.04473  -0.00074   0.00000   0.00315
  32        2PZ         0.00000   0.00000   0.00000  -0.00047   0.00000
  33        3S         -1.20134   0.04146   0.96179   0.00000  -0.54931
  34        3PX         0.24960  -0.00612   0.50727   0.00000  -0.66231
  35        3PY        -0.00119  -0.05734  -0.00199   0.00001   0.00992
  36        3PZ         0.00000   0.00000   0.00000  -0.00126   0.00000
  37        4S          0.14326  -0.00968  -4.07920   0.00000   8.55439
  38        4PX         0.76125  -0.03213   1.77695   0.00000  -2.95282
  39        4PY         0.01256   0.41800   0.00116  -0.00002  -0.02182
  40        4PZ         0.00000   0.00000   0.00001   0.00322   0.00000
  41        5S          1.35657   0.19854  20.38784  -0.00001 -13.34761
  42        5PX         0.08259  -0.05878  -5.14560   0.00000   3.85655
  43        5PY        -0.00004   0.06983  -0.00392   0.00000   0.00472
  44        5PZ         0.00000   0.00000  -0.00002  -0.00023   0.00001
  45        6D 0        0.00775  -0.00033   0.00662   0.00000  -0.00045
  46        6D+1        0.00000   0.00000   0.00000  -0.00010   0.00000
  47        6D-1        0.00000   0.00000   0.00000   0.00556   0.00000
  48        6D+2       -0.01335   0.00047  -0.01954   0.00000  -0.00110
  49        6D-2       -0.00007  -0.00327  -0.00020   0.00000   0.00070
  50        7D 0        0.06935  -0.01023  -0.05311   0.00000  -0.20629
  51        7D+1        0.00000   0.00000  -0.00001  -0.00347   0.00000
  52        7D-1        0.00000   0.00000   0.00000   0.81522   0.00000
  53        7D+2       -0.34139   0.00937  -0.57477   0.00000  -0.00264
  54        7D-2       -0.00941  -0.30667  -0.00606   0.00002   0.01979
  55 3   C  1S         -0.05167   0.00148   0.00395   0.00000   0.03690
  56        2S         -0.10144   0.00287   0.03132   0.00000   0.06895
  57        2PX         0.09756  -0.00137  -0.04800   0.00000  -0.24780
  58        2PY         0.00195   0.07289   0.00072   0.00000  -0.00140
  59        2PZ         0.00000   0.00000   0.00000   0.00041   0.00000
  60        3S          1.05058  -0.02833  -0.24236   0.00000  -0.39362
  61        3PX        -0.10574   0.01493  -1.41672   0.00000  -0.87358
  62        3PY         0.02297   0.74871  -0.00304   0.00000   0.01063
  63        3PZ         0.00000   0.00000   0.00000   0.00083   0.00000
  64        4S         -5.36219   0.16849  -9.38986  -0.00001  -9.10256
  65        4PX        -2.55562   0.14542  -3.57479   0.00000  -5.06103
  66        4PY         0.08381   3.07718  -0.04359  -0.00001  -0.00114
  67        4PZ         0.00000   0.00000   0.00002   0.00289   0.00003
  68        5S          0.46498  -0.02508  -1.43217   0.00000  -1.29397
  69        5PX         0.77018  -0.02838   0.13595   0.00000  -0.17352
  70        5PY        -0.01310  -0.26382  -0.01023   0.00000  -0.00885
  71        5PZ         0.00000   0.00000   0.00000  -0.00058  -0.00001
  72        6D 0        0.01058  -0.00047   0.02991   0.00000  -0.01940
  73        6D+1        0.00000   0.00000   0.00000   0.00000   0.00000
  74        6D-1        0.00000   0.00000   0.00000   0.00826   0.00000
  75        6D+2       -0.02954   0.00092  -0.07721   0.00000   0.01302
  76        6D-2       -0.00032  -0.01352   0.00022   0.00000   0.00031
  77        7D 0        0.62032  -0.01911   0.70458   0.00000   0.62154
  78        7D+1        0.00000   0.00000   0.00002   0.00054   0.00002
  79        7D-1        0.00000   0.00000   0.00000   0.11216   0.00000
  80        7D+2       -0.68365   0.00692  -0.74700   0.00000  -1.23287
  81        7D-2       -0.06098  -1.96149   0.01355  -0.00002  -0.03533
  82 4   H  1S          0.00960   0.01259   0.02106   0.00000   0.03148
  83        2S          0.29700  -2.84976   0.68061  -0.00002  -0.14968
  84        3S         -0.29316   0.00326  -0.57583   0.00001  -0.05329
  85        4PX         0.00301  -0.13837  -0.04017  -0.00001   0.03905
  86        4PY        -0.03682   0.12397  -0.00439   0.00000   0.03697
  87        4PZ         0.00000   0.00000   0.00000   0.20667   0.00000
  88 5   H  1S          0.00806  -0.01271   0.02101   0.00000   0.02906
  89        2S          0.47034   2.86068   0.63538   0.00001  -0.07948
  90        3S         -0.30897   0.00838  -0.61646  -0.00001  -0.09282
  91        4PX         0.01147   0.13855  -0.05039   0.00001   0.06073
  92        4PY         0.04458   0.12125   0.00624   0.00000  -0.03964
  93        4PZ         0.00000   0.00000   0.00000  -0.20814   0.00000
                          51        52        53        54        55
[...]
  70        5PY         0.00000   0.00321   0.00000   0.00000   0.00000
  71        5PZ         0.00000   0.00000   0.00969   0.00000   0.00000
  72        6D 0        0.00000   0.00000   0.00000   0.00000   0.00000
  73        6D+1        0.00000   0.00000   0.00000   0.00000   0.00000
  74        6D-1        0.00000   0.00000   0.00000   0.00000   0.00000
  75        6D+2        0.00000   0.00000   0.00000   0.00000   0.00000
  76        6D-2        0.00000   0.00000   0.00000   0.00000   0.00000
  77        7D 0        0.00000   0.00000   0.00000   0.00000   0.00000
  78        7D+1        0.00000   0.00000   0.00000   0.00000   0.00000
  79        7D-1        0.00000   0.00000   0.00000   0.00000   0.00000
  80        7D+2        0.00000   0.00000   0.00000   0.00000   0.00000
  81        7D-2        0.00000   0.00000   0.00000   0.00000   0.00000
  82 4   H  1S          0.00903   0.02935   0.00000   0.01998   0.00391
  83        2S          0.01598   0.05721   0.00000   0.05763   0.00921
  84        3S          0.00137   0.00627   0.00000   0.00717   0.00115
  85        4PX        -0.00009   0.00245   0.00000   0.00050  -0.00013
  86        4PY         0.00221   0.00207   0.00000   0.00237   0.00043
  87        4PZ         0.00000   0.00000   0.00354   0.00000   0.00000
  88 5   H  1S          0.00945   0.02883   0.00000   0.02009   0.00408
  89        2S          0.01672   0.05634   0.00000   0.05788   0.00963
  90        3S          0.00141   0.00612   0.00000   0.00725   0.00118
  91        4PX        -0.00011   0.00255   0.00000   0.00054  -0.00015
  92        4PY         0.00228   0.00193   0.00000   0.00233   0.00044
  93        4PZ         0.00000   0.00000   0.00355   0.00000   0.00000
                          66        67        68        69        70
  66        4PY         0.05761
  67        4PZ         0.00000   0.21187
  68        5S          0.00000   0.00000   0.00485
  69        5PX         0.00000   0.00000   0.00000   0.00068
  70        5PY         0.00557   0.00000   0.00000   0.00000   0.00128
  71        5PZ         0.00000   0.02893   0.00000   0.00000   0.00000
  72        6D 0        0.00000   0.00000   0.00000   0.00000   0.00000
  73        6D+1        0.00000   0.00000   0.00000   0.00000   0.00000
  74        6D-1        0.00000   0.00000   0.00000   0.00000   0.00000
  75        6D+2        0.00000   0.00000   0.00000   0.00000   0.00000
  76        6D-2        0.00000   0.00000   0.00000   0.00000   0.00000
  77        7D 0        0.00000   0.00000   0.00000   0.00000   0.00000
  78        7D+1        0.00000   0.00000   0.00000   0.00000   0.00000
  79        7D-1        0.00000   0.00000   0.00000   0.00000   0.00000
  80        7D+2        0.00000   0.00000   0.00000   0.00000   0.00000
  81        7D-2        0.00000   0.00000   0.00000   0.00000   0.00000
  82 4   H  1S          0.01665   0.00000   0.00161   0.00005   0.00096
  83        2S          0.04315   0.00000   0.00545   0.00016   0.00341
  84        3S          0.00918   0.00000   0.00053   0.00010   0.00123
  85        4PX         0.00064   0.00000   0.00002   0.00001   0.00001
  86        4PY        -0.00035   0.00000   0.00007   0.00000  -0.00007
  87        4PZ         0.00000   0.00355   0.00000   0.00000   0.00000
  88 5   H  1S          0.01637   0.00000   0.00160   0.00006   0.00095
  89        2S          0.04245   0.00000   0.00538   0.00019   0.00337
  90        3S          0.00899   0.00000   0.00054   0.00011   0.00120
  91        4PX         0.00066   0.00000   0.00002   0.00001   0.00001
  92        4PY        -0.00036   0.00000   0.00007   0.00000  -0.00007
  93        4PZ         0.00000   0.00356   0.00000   0.00000   0.00000
                          71        72        73        74        75
  71        5PZ         0.00936
  72        6D 0        0.00000   0.00028
  73        6D+1        0.00000   0.00000   0.00043
  74        6D-1        0.00000   0.00000   0.00000   0.00000
  75        6D+2        0.00000   0.00000   0.00000   0.00000   0.00091
  76        6D-2        0.00000   0.00000   0.00000   0.00000   0.00000
  77        7D 0        0.00000   0.00009   0.00000   0.00000   0.00000
  78        7D+1        0.00000   0.00000   0.00030   0.00000   0.00000
  79        7D-1        0.00000   0.00000   0.00000   0.00000   0.00000
  80        7D+2        0.00000   0.00000   0.00000   0.00000   0.00023
  81        7D-2        0.00000   0.00000   0.00000   0.00000   0.00000
  82 4   H  1S          0.00000   0.00013   0.00000   0.00000   0.00029
  83        2S          0.00000   0.00010   0.00000   0.00000   0.00025
  84        3S          0.00000   0.00000   0.00000   0.00000   0.00001
  85        4PX         0.00000   0.00001   0.00000   0.00000   0.00000
  86        4PY         0.00000   0.00002   0.00000   0.00000   0.00000
  87        4PZ         0.00031   0.00000  -0.00004   0.00000   0.00000
  88 5   H  1S          0.00000   0.00013   0.00000   0.00000   0.00026
  89        2S          0.00000   0.00010   0.00000   0.00000   0.00022
  90        3S          0.00000   0.00000   0.00000   0.00000   0.00001
  91        4PX         0.00000   0.00001   0.00000   0.00000   0.00000
  92        4PY         0.00000   0.00002   0.00000   0.00000  -0.00001
  93        4PZ         0.00031   0.00000  -0.00005   0.00000   0.00000
                          76        77        78        79        80
  76        6D-2        0.00050
  77        7D 0        0.00000   0.00013
  78        7D+1        0.00000   0.00000   0.00122
  79        7D-1        0.00000   0.00000   0.00000   0.00000
  80        7D+2        0.00000   0.00000   0.00000   0.00000   0.00044
  81        7D-2        0.00054   0.00000   0.00000   0.00000   0.00000
  82 4   H  1S          0.00048   0.00012   0.00000   0.00000   0.00010
  83        2S          0.00042   0.00012   0.00000   0.00000   0.00013
  84        3S          0.00003  -0.00001   0.00000   0.00000   0.00002
  85        4PX         0.00000   0.00000   0.00000   0.00000  -0.00003
  86        4PY         0.00004   0.00000   0.00000   0.00000  -0.00002
  87        4PZ         0.00000   0.00000  -0.00007   0.00000   0.00000
  88 5   H  1S          0.00050   0.00012   0.00000   0.00000   0.00010
  89        2S          0.00043   0.00010   0.00000   0.00000   0.00013
  90        3S          0.00003   0.00000   0.00000   0.00000   0.00002
  91        4PX         0.00000   0.00000   0.00000   0.00000  -0.00003
  92        4PY         0.00004   0.00000   0.00000   0.00000  -0.00002
  93        4PZ         0.00000   0.00000  -0.00007   0.00000   0.00000
                          81        82        83        84        85
  81        7D-2        0.00498
  82 4   H  1S         -0.00016   0.07880
  83        2S         -0.00056   0.08190   0.17191
  84        3S          0.00021   0.00890   0.02800   0.01050
  85        4PX        -0.00004   0.00000   0.00000   0.00000   0.00062
  86        4PY        -0.00004   0.00000   0.00000   0.00000   0.00000
  87        4PZ         0.00000   0.00000   0.00000   0.00000   0.00000
  88 5   H  1S         -0.00017  -0.00001  -0.00075  -0.00154   0.00000
  89        2S         -0.00063  -0.00075  -0.00651  -0.00626   0.00000
  90        3S          0.00022  -0.00155  -0.00628  -0.00431   0.00000
  91        4PX        -0.00003   0.00000   0.00000   0.00000   0.00000
  92        4PY        -0.00004   0.00001   0.00006  -0.00009   0.00000
  93        4PZ         0.00000   0.00000   0.00000   0.00000   0.00000
                          86        87        88        89        90
  86        4PY         0.00144
  87        4PZ         0.00000   0.00074
  88 5   H  1S          0.00001   0.00000   0.07872
  89        2S          0.00005   0.00000   0.08180   0.17176
  90        3S         -0.00010   0.00000   0.00877   0.02752   0.01037
  91        4PX         0.00000   0.00000   0.00000   0.00000   0.00000
  92        4PY         0.00004   0.00000   0.00000   0.00000   0.00000
  93        4PZ         0.00000   0.00001   0.00000   0.00000   0.00000
                          91        92        93
  91        4PX         0.00065
  92        4PY         0.00000   0.00142
  93        4PZ         0.00000   0.00000   0.00074
     Gross orbital populations:
                           1
   1 1   N  1S          1.09522
   2        2S          0.89615
   3        2PX         0.27989
   4        2PY         0.24109
   5        2PZ         0.24455
   6        3S          0.90153
   7        3PX         0.62118
   8        3PY         0.55526
   9        3PZ         0.57328
  10        4S          0.46607
  11        4PX         0.04494
  12        4PY         0.35433
  13        4PZ         0.38126
  14        5S         -0.09715
  15        5PX        -0.00991
  16        5PY         0.00975
  17        5PZ        -0.00737
  18        6D 0        0.00088
  19        6D+1        0.00517
  20        6D-1        0.00000
  21        6D+2        0.00249
  22        6D-2        0.00209
  23        7D 0        0.00214
  24        7D+1        0.08732
  25        7D-1        0.00000
  26        7D+2        0.00461
  27        7D-2        0.03636
  28 2   N  1S          1.09588
  29        2S          0.89539
  30        2PX         0.24609
  31        2PY         0.15467
  32        2PZ         0.29071
  33        3S          0.97905
  34        3PX         0.54353
  35        3PY         0.36489
  36        3PZ         0.62482
  37        4S          0.96449
  38        4PX         0.19946
  39        4PY         0.27319
  40        4PZ         0.46507
  41        5S         -0.04193
  42        5PX         0.05403
  43        5PY         0.00346
  44        5PZ         0.03001
  45        6D 0        0.00140
  46        6D+1        0.00207
  47        6D-1        0.00000
  48        6D+2        0.00415
  49        6D-2        0.00242
  50        7D 0        0.00333
  51        7D+1        0.02225
  52        7D-1        0.00000
  53        7D+2        0.01017
  54        7D-2        0.02348
  55 3   C  1S          1.10352
  56        2S          0.88512
  57        2PX         0.20050
  58        2PY         0.23303
  59        2PZ         0.22665
  60        3S          0.72844
  61        3PX         0.43913
  62        3PY         0.50927
  63        3PZ         0.52365
  64        4S          0.48787
  65        4PX         0.12639
  66        4PY         0.25393
  67        4PZ         0.45097
  68        5S          0.06171
  69        5PX         0.01465
  70        5PY         0.01876
  71        5PZ         0.04075
  72        6D 0        0.00226
  73        6D+1        0.00307
  74        6D-1        0.00000
  75        6D+2        0.00735
  76        6D-2        0.00465
  77        7D 0        0.00209
  78        7D+1        0.01748
  79        7D-1        0.00000
  80        7D+2        0.00853
  81        7D-2        0.03737
  82 4   H  1S          0.26976
  83        2S          0.50336
  84        3S          0.05277
  85        4PX         0.00604
  86        4PY         0.01423
  87        4PZ         0.00916
  88 5   H  1S          0.26951
  89        2S          0.50333
  90        3S          0.05196
  91        4PX         0.00635
  92        4PY         0.01404
  93        4PZ         0.00915
          Condensed to atoms (all electrons):
               1          2          3          4          5
     1  N    5.548677   0.697361   0.498549  -0.027070  -0.026359
     2  N    0.697361   6.618522  -0.075935  -0.014161  -0.013724
     3  C    0.498549  -0.075935   5.119048   0.422900   0.422559
     4  H   -0.027070  -0.014161   0.422900   0.501610  -0.027959
     5  H   -0.026359  -0.013724   0.422559  -0.027959   0.499823
 Mulliken charges:
               1
     1  N    0.308843
     2  N   -0.212063
     3  C   -0.387121
     4  H    0.144680
     5  H    0.145661
 Sum of Mulliken charges =   0.00000
 Mulliken charges with hydrogens summed into heavy atoms:
               1
     1  N    0.308843
     2  N   -0.212063
     3  C   -0.096780
 Electronic spatial extent (au):  <R**2>=            140.1065
 Charge=              0.0000 electrons
 Dipole moment (field-independent basis, Debye):
    X=             -2.1934    Y=             -0.0008    Z=              0.0000  Tot=              2.1934
 Quadrupole moment (field-independent basis, Debye-Ang):
   XX=            -18.3363   YY=            -15.7877   ZZ=            -19.3808
   XY=              0.0128   XZ=              0.0000   YZ=              0.0000
 Traceless Quadrupole moment (field-independent basis, Debye-Ang):
   XX=             -0.5014   YY=              2.0472   ZZ=             -1.5459
   XY=              0.0128   XZ=              0.0000   YZ=              0.0000
 Octapole moment (field-independent basis, Debye-Ang**2):
  XXX=             -7.6747  YYY=              0.0200  ZZZ=              0.0000  XYY=             -1.7139
  XXY=             -0.0530  XXZ=              0.0000  XZZ=              1.2896  YZZ=             -0.0003
  YYZ=              0.0000  XYZ=              0.0000
 Hexadecapole moment (field-independent basis, Debye-Ang**3):
 XXXX=           -147.1524 YYYY=            -20.8802 ZZZZ=            -21.1443 XXXY=              0.1429
 XXXZ=              0.0000 YYYX=             -0.0152 YYYZ=              0.0000 ZZZX=              0.0000
 ZZZY=              0.0000 XXYY=            -23.4935 XXZZ=            -31.9741 YYZZ=             -7.4319
 XXYZ=              0.0000 YYXZ=              0.0000 ZZXY=              0.0018
 N-N= 5.982876796054D+01 E-N=-4.661580895864D+02  KE= 1.478461226961D+02
 Orbital energies and kinetic energies (alpha):
                                 1                 2
   1         O               -14.497892         22.065034
   2         O               -14.431057         22.071130
   3         O               -10.243745         15.961951
   4         O                -1.089657          2.327524
   5         O                -0.869327          2.060701
   6         O                -0.591014          1.497211
   7         O                -0.528159          1.241934
   8         O                -0.474162          1.575044
   9         O                -0.462631          2.137434
  10         O                -0.395077          1.486152
  11         O                -0.243415          1.498947
  12         V                -0.073321          1.933713
  13         V                -0.008708          1.562716
  14         V                 0.011396          0.305398
  15         V                 0.050317          0.232657
  16         V                 0.050640          0.261193
  17         V                 0.080779          0.655819
  18         V                 0.108350          0.417122
  19         V                 0.138343          0.426773
  20         V                 0.144672          0.668807
  21         V                 0.148768          0.395123
  22         V                 0.188563          1.011334
  23         V                 0.214874          0.480171
  24         V                 0.221506          0.479090
  25         V                 0.224257          0.446001
  26         V                 0.234301          0.855332
  27         V                 0.256473          1.787982
  28         V                 0.298528          0.766917
  29         V                 0.382588          1.293924
  30         V                 0.511073          1.427614
  31         V                 0.513195          1.367730
  32         V                 0.548100          1.495292
  33         V                 0.559182          1.101539
  34         V                 0.644082          1.920776
  35         V                 0.669151          1.584266
  36         V                 0.759672          1.595572
  37         V                 0.764714          1.978757
  38         V                 0.772295          1.916113
  39         V                 0.779858          1.892765
  40         V                 0.796098          1.683118
  41         V                 0.862665          1.872606
  42         V                 0.866898          2.702100
  43         V                 0.871411          1.519990
  44         V                 0.875319          1.879536
  45         V                 0.966263          1.687765
  46         V                 0.988102          2.876856
  47         V                 1.005565          1.781279
  48         V                 1.142473          2.689119
  49         V                 1.234783          1.891506
  50         V                 1.253943          2.759493
  51         V                 1.266893          2.151556
  52         V                 1.294237          2.586273
  53         V                 1.360243          2.241295
  54         V                 1.400161          2.143846
  55         V                 1.684462          2.573735
  56         V                 1.689026          2.357673
  57         V                 1.801259          2.852666
  58         V                 1.895008          2.523454
  59         V                 1.942588          3.538817
  60         V                 2.090273          3.534073
  61         V                 2.115273          3.421149
  62         V                 2.340926          3.672047
  63         V                 2.355035          3.613178
  64         V                 2.571000          4.451743
  65         V                 2.650437          4.086681
  66         V                 2.813058          6.307276
  67         V                 2.864824          4.632771
  68         V                 3.216588          4.913101
  69         V                 3.250546          6.248613
  70         V                 3.393715          5.822796
  71         V                 3.437515          6.310383
  72         V                 3.553248          6.070014
  73         V                 3.812725          8.328080
  74         V                 3.846152          8.627435
  75         V                 3.968047          8.936085
  76         V                 3.973077          8.934938
  77         V                 3.973767          7.084800
  78         V                 4.123047          6.303822
  79         V                 4.417151          9.027525
  80         V                 4.658796          7.136802
  81         V                 4.662602          7.293035
  82         V                 4.690675          7.812154
  83         V                 4.791827          7.255942
  84         V                 4.810724          7.328705
  85         V                 4.855768          7.306078
  86         V                 4.922400          7.381047
  87         V                 5.130418          7.692695
  88         V                 5.238434          7.784955
  89         V                 5.279503          9.285770
  90         V                 5.877738          8.983473
  91         V                24.237334         60.529523
  92         V                35.420852         89.058257
  93         V                35.817508         88.976675
 Total kinetic energy from orbitals= 1.478461226961D+02
 1|1|UNPC-DESKTOP-KC5UJLK|SP|RAPFD|6-311+G(2d,p)|C1H2N2|23122|05-Feb-20
 22|0||# apfd/6-311+g(2d,p) pop=full geom=connectivity int=ultrafine||E
 nergy Calculation(GC)||0,1|N,0,0.12321429,-0.11517606,-0.00798403|N,0,
 1.33494678,-0.20407055,-0.01557091|C,0,-1.15199658,-0.02161901,0.|H,0,
 -1.68233161,0.0630274,-0.92552592|H,0,-1.69284341,-0.027237,0.92329391
 ||Version=IA32W-G09RevD.01|State=1-A|HF=-148.6461023|RMSD=3.003e-009|D
 ipole=-0.8606263,0.0631255,0.0056748|Quadrupole=-0.3769764,-1.1387118,
 1.5156883,-0.0565416,-0.0073758,-0.1306855|PG=C01 [X(C1H2N2)]||@


 Other things may change us, but we start and end with family.
 -- Anthony Brandt
 Job cpu time:       0 days  0 hours  0 minutes 16.0 seconds.
 File lengths (MBytes):  RWF=      5 Int=      0 D2E=      0 Chk=      1 Scr=      1
 Normal termination of Gaussian 09 at Sat Feb 05 16:19:40 2022.
