 Entering Link 1 = C:\G09W\l1.exe PID=      7444.
  
 Copyright (c) 1988,1990,1992,1993,1995,1998,2003,2009,2013,
            Gaussian, Inc.  All Rights Reserved.
  
 This is part of the Gaussian(R) 09 program.  It is based on
 the Gaussian(R) 03 system (copyright 2003, Gaussian, Inc.),
 the Gaussian(R) 98 system (copyright 1998, Gaussian, Inc.),
 the Gaussian(R) 94 system (copyright 1995, Gaussian, Inc.),
 the Gaussian 92(TM) system (copyright 1992, Gaussian, Inc.),
 the Gaussian 90(TM) system (copyright 1990, Gaussian, Inc.),
 the Gaussian 88(TM) system (copyright 1988, Gaussian, Inc.),
 the Gaussian 86(TM) system (copyright 1986, Carnegie Mellon
 University), and the Gaussian 82(TM) system (copyright 1983,
 Carnegie Mellon University). Gaussian is a federally registered
 trademark of Gaussian, Inc.
  
 This software contains proprietary and confidential information,
 including trade secrets, belonging to Gaussian, Inc.
  
 This software is provided under written license and may be
 used, copied, transmitted, or stored only in accord with that
 written license.
  
 The following legend is applicable only to US Government
 contracts under FAR:
  
                    RESTRICTED RIGHTS LEGEND
  
 Use, reproduction and disclosure by the US Government is
 subject to restrictions as set forth in subparagraphs (a)
 and (c) of the Commercial Computer Software - Restricted
 Rights clause in FAR 52.227-19.
  
 Gaussian, Inc.
 340 Quinnipiac St., Bldg. 40, Wallingford CT 06492
  
  
 ---------------------------------------------------------------
 Warning -- This program may not be used in any manner that
 competes with the business of Gaussian, Inc. or will provide
 assistance to any competitor of Gaussian, Inc.  The licensee
 of this program is prohibited from giving any competitor of
 Gaussian, Inc. access to this program.  By using this program,
 the user acknowledges that Gaussian, Inc. is engaged in the
 business of creating and licensing software in the field of
 computational chemistry and represents and warrants to the
 licensee that it is not a competitor of Gaussian, Inc. and that
 it will not use this program in any manner prohibited above.
 ---------------------------------------------------------------
  

 Cite this work as:
 Gaussian 09, Revision D.01,
 M. J. Frisch, G. W. Trucks, H. B. Schlegel, G. E. Scuseria, 
 M. A. Robb, J. R. Cheeseman, G. Scalmani, V. Barone, B. Mennucci, 
 G. A. Petersson, H. Nakatsuji, M. Caricato, X. Li, H. P. Hratchian, 
 A. F. Izmaylov, J. Bloino, G. Zheng, J. L. Sonnenberg, M. Hada, 
 M. Ehara, K. Toyota, R. Fukuda, J. Hasegawa, M. Ishida, T. Nakajima, 
 Y. Honda, O. Kitao, H. Nakai, T. Vreven, J. A. Montgomery, Jr., 
 J. E. Peralta, F. Ogliaro, M. Bearpark, J. J. Heyd, E. Brothers, 
 K. N. Kudin, V. N. Staroverov, T. Keith, R. Kobayashi, J. Normand, 
 K. Raghavachari, A. Rendell, J. C. Burant, S. S. Iyengar, J. Tomasi, 
 M. Cossi, N. Rega, J. M. Millam, M. Klene, J. E. Knox, J. B. Cross, 
 V. Bakken, C. Adamo, J. Jaramillo, R. Gomperts, R. E. Stratmann, 
 O. Yazyev, A. J. Austin, R. Cammi, C. Pomelli, J. W. Ochterski, 
 R. L. Martin, K. Morokuma, V. G. Zakrzewski, G. A. Voth, 
 P. Salvador, J. J. Dannenberg, S. Dapprich, A. D. Daniels, 
 O. Farkas, J. B. Foresman, J. V. Ortiz, J. Cioslowski, 
 and D. J. Fox, Gaussian, Inc., Wallingford CT, 2013.
 
 ******************************************
 Gaussian 09:  IA32W-G09RevD.01 24-Apr-2013
                05-Feb-2022 
 ******************************************
 %chk=D:\mindmap\gaussian\calculate\ch3n2_60degree\energy.chk
 %nprocshared=4
 Will use up to    4 processors via shared memory.
 %mem=1GB
 -------------------------------------------------------------
 # apfd/6-311+g(2d,p) geom=connectivity pop=full int=ultrafine
 -------------------------------------------------------------
 1/38=1,57=2/1;
 2/12=2,17=6,18=5,40=1/2;
 3/5=4,6=6,7=112,11=2,16=1,25=1,30=1,74=-44,75=-5/1,2,3;
 4//1;
 5/5=2,38=5/2;
 6/7=3,28=1/1;
 99/5=1,9=1/99;
 ----------------------
 Energy Calculation(GC)
 ----------------------
 Symbolic Z-matrix:
 Charge =  0 Multiplicity = 1
 C                     0.00073  -0.87642   0.08575 
 H                     0.92507  -1.38708  -0.08662 
 H                    -0.92699  -1.38886  -0.06138 
 N                     0.00165   0.61044   0.86474 
 N                    -0.002     0.53734  -0.9171 
 
                          Input orientation:                          
 ---------------------------------------------------------------------
 Center     Atomic      Atomic             Coordinates (Angstroms)
 Number     Number       Type             X           Y           Z
 ---------------------------------------------------------------------
      1          6           0        0.000728   -0.876418    0.085749
      2          1           0        0.925073   -1.387079   -0.086621
      3          1           0       -0.926988   -1.388858   -0.061383
      4          7           0        0.001652    0.610435    0.864744
      5          7           0       -0.002003    0.537343   -0.917100
 ---------------------------------------------------------------------
                    Distance matrix (angstroms):
                    1          2          3          4          5
     1  C    0.000000
     2  H    1.070000   0.000000
     3  H    1.070000   1.852234   0.000000
     4  N    1.678561   2.397471   2.391078   0.000000
     5  N    1.733330   2.291848   2.301760   1.783346   0.000000
 Stoichiometry    CH2N2
 Framework group  C1[X(CH2N2)]
 Deg. of freedom     9
 Full point group                 C1      NOp   1
 Largest Abelian subgroup         C1      NOp   1
 Largest concise Abelian subgroup C1      NOp   1
                         Standard orientation:                         
 ---------------------------------------------------------------------
 Center     Atomic      Atomic             Coordinates (Angstroms)
 Number     Number       Type             X           Y           Z
 ---------------------------------------------------------------------
      1          6           0       -0.876418   -0.085749   -0.000728
      2          1           0       -1.387079    0.086621   -0.925073
      3          1           0       -1.388858    0.061383    0.926988
      4          7           0        0.610435   -0.864744   -0.001652
      5          7           0        0.537343    0.917100    0.002003
 ---------------------------------------------------------------------
 Rotational constants (GHZ):     21.2668702     20.8644922     11.3495582
 Standard basis: 6-311+G(2d,p) (5D, 7F)
 There are    99 symmetry adapted cartesian basis functions of A   symmetry.
 There are    93 symmetry adapted basis functions of A   symmetry.
    93 basis functions,   142 primitive gaussians,    99 cartesian basis functions
    11 alpha electrons       11 beta electrons
       nuclear repulsion energy        53.1433041886 Hartrees.
 NAtoms=    5 NActive=    5 NUniq=    5 SFac= 1.00D+00 NAtFMM=   60 NAOKFM=F Big=F
 Integral buffers will be    262144 words long.
 Raffenetti 2 integral format.
 Two-electron integral symmetry is turned on.
 R6APFD:  NTU= -4 IXU= 1 FactS= 1.050
 Nuclear repulsion after empirical dispersion term =       53.1429666307 Hartrees.
 One-electron integrals computed using PRISM.
 NBasis=    93 RedAO= T EigKep=  2.17D-03  NBF=    93
 NBsUse=    93 1.00D-06 EigRej= -1.00D+00 NBFU=    93
 ExpMin= 4.38D-02 ExpMax= 6.29D+03 ExpMxC= 9.49D+02 IAcc=3 IRadAn=         5 AccDes= 0.00D+00
 Harris functional with IExCor= 3731 and IRadAn=       5 diagonalized for initial guess.
 HarFok:  IExCor= 3731 AccDes= 0.00D+00 IRadAn=         5 IDoV= 1 UseB2=F ITyADJ=14
 ICtDFT=  3500011 ScaDFX=  1.000000  1.000000  1.000000  1.000000
 FoFCou: FMM=F IPFlag=           0 FMFlag=      100000 FMFlg1=           0
         NFxFlg=           0 DoJE=T BraDBF=F KetDBF=T FulRan=T
         wScrn=  0.000000 ICntrl=     500 IOpCl=  0 I1Cent=   200000004 NGrid=           0
         NMat0=    1 NMatS0=      1 NMatT0=    0 NMatD0=    1 NMtDS0=    0 NMtDT0=    0
 Petite list used in FoFCou.
 Keep R1 ints in memory in canonical form, NReq=10520328.
 Requested convergence on RMS density matrix=1.00D-08 within 128 cycles.
 Requested convergence on MAX density matrix=1.00D-06.
 Requested convergence on             energy=1.00D-06.
 No special actions if energy rises.
 EnCoef did     1 forward-backward iterations
 EnCoef did     4 forward-backward iterations
 SCF Done:  E(RAPFD) =  -148.449820151     A.U. after   13 cycles
            NFock= 13  Conv=0.51D-08     -V/T= 2.0096

 **********************************************************************

            Population analysis using the SCF density.

 **********************************************************************

 Orbital symmetries:
       Occupied  (A) (A) (A) (A) (A) (A) (A) (A) (A) (A) (A)
       Virtual   (A) (A) (A) (A) (A) (A) (A) (A) (A) (A) (A) (A)
                 (A) (A) (A) (A) (A) (A) (A) (A) (A) (A) (A) (A)
                 (A) (A) (A) (A) (A) (A) (A) (A) (A) (A) (A) (A)
                 (A) (A) (A) (A) (A) (A) (A) (A) (A) (A) (A) (A)
                 (A) (A) (A) (A) (A) (A) (A) (A) (A) (A) (A) (A)
                 (A) (A) (A) (A) (A) (A) (A) (A) (A) (A) (A) (A)
                 (A) (A) (A) (A) (A) (A) (A) (A) (A) (A)
 The electronic state is 1-A.
 Alpha  occ. eigenvalues --  -14.48469 -14.48227 -10.30438  -0.91868  -0.70002
 Alpha  occ. eigenvalues --   -0.67449  -0.49611  -0.42253  -0.35582  -0.33098
 Alpha  occ. eigenvalues --   -0.30561
 Alpha virt. eigenvalues --   -0.16910  -0.04401  -0.02294   0.01378   0.03582
 Alpha virt. eigenvalues --    0.05125   0.08710   0.10508   0.13021   0.13814
 Alpha virt. eigenvalues --    0.15130   0.15774   0.15924   0.19912   0.20701
 Alpha virt. eigenvalues --    0.22093   0.25857   0.27641   0.39307   0.42930
 Alpha virt. eigenvalues --    0.54472   0.55998   0.58746   0.62780   0.66725
 Alpha virt. eigenvalues --    0.74303   0.76093   0.79459   0.80868   0.82229
 Alpha virt. eigenvalues --    0.83630   0.85662   0.86698   0.97754   1.03237
 Alpha virt. eigenvalues --    1.07322   1.13338   1.15327   1.18506   1.21069
 Alpha virt. eigenvalues --    1.23239   1.28255   1.33812   1.42202   1.59737
 Alpha virt. eigenvalues --    1.68417   1.72166   1.82845   1.96850   2.01822
 Alpha virt. eigenvalues --    2.14137   2.27527   2.33997   2.62513   2.76318
 Alpha virt. eigenvalues --    2.93831   3.08794   3.14345   3.25408   3.36794
 Alpha virt. eigenvalues --    3.43638   3.69843   3.74755   3.76581   3.77948
 Alpha virt. eigenvalues --    3.90398   4.09633   4.13966   4.38123   4.69635
 Alpha virt. eigenvalues --    4.73541   4.81581   4.81674   4.91169   4.92546
 Alpha virt. eigenvalues --    5.03075   5.07485   5.14849   5.16934  23.86532
 Alpha virt. eigenvalues --   35.37354  35.38804
     Molecular Orbital Coefficients:
                           1         2         3         4         5
                           O         O         O         O         O
     Eigenvalues --   -14.48469 -14.48227 -10.30438  -0.91868  -0.70002
   1 1   C  1S          0.00002   0.00001   0.56341  -0.05478   0.00586
   2        2S         -0.00011  -0.00006   0.46344  -0.08513   0.00924
   3        2PX        -0.00007  -0.00010   0.00104   0.03616   0.01380
   4        2PY         0.00009  -0.00014  -0.00006   0.00343  -0.05120
   5        2PZ         0.00000   0.00000   0.00000   0.00005   0.00020
   6        3S          0.00016  -0.00017   0.01731   0.21855  -0.02476
   7        3PX         0.00067   0.00063  -0.00270   0.06517   0.01939
   8        3PY        -0.00061   0.00079   0.00082   0.00324  -0.07936
   9        3PZ        -0.00001   0.00001   0.00001  -0.00002   0.00032
  10        4S          0.00367   0.00337  -0.00962   0.09821  -0.01995
  11        4PX         0.00175   0.00149  -0.00519   0.02441   0.00528
  12        4PY        -0.00057   0.00122  -0.00018  -0.00213  -0.03329
  13        4PZ         0.00001  -0.00001   0.00001  -0.00014   0.00001
  14        5S         -0.00456  -0.00408  -0.00429   0.06740  -0.00045
  15        5PX        -0.00189  -0.00176   0.00022   0.01965   0.00145
  16        5PY         0.00058  -0.00090  -0.00041   0.00244  -0.01418
  17        5PZ         0.00001  -0.00001  -0.00001   0.00003  -0.00007
  18        6D 0       -0.00005  -0.00006   0.00047  -0.00276  -0.00144
  19        6D+1        0.00000   0.00000   0.00000   0.00000  -0.00006
  20        6D-1        0.00000   0.00000  -0.00002  -0.00005   0.00004
  21        6D+2        0.00007   0.00003   0.00051   0.00484   0.00134
  22        6D-2       -0.00007   0.00005  -0.00015  -0.00028  -0.00940
  23        7D 0        0.00008  -0.00008   0.00351  -0.02012  -0.00131
  24        7D+1        0.00000   0.00000  -0.00001   0.00010  -0.00001
  25        7D-1       -0.00001  -0.00001  -0.00006   0.00024   0.00004
  26        7D+2        0.00036   0.00013  -0.00062   0.00733   0.00245
  27        7D-2       -0.00067   0.00088  -0.00045   0.00102  -0.01275
  28 2   H  1S          0.00009   0.00006   0.00002   0.02858  -0.01377
  29        2S         -0.00086  -0.00053  -0.00522   0.05002  -0.01621
  30        3S          0.00017  -0.00016   0.00311  -0.00670  -0.00090
  31        4PX        -0.00023  -0.00017  -0.00131   0.00727  -0.00008
  32        4PY         0.00004  -0.00002   0.00049  -0.00193  -0.00255
  33        4PZ        -0.00004   0.00003  -0.00188   0.00668  -0.00223
  34 3   H  1S          0.00009   0.00006   0.00002   0.02853  -0.01288
  35        2S         -0.00085  -0.00054  -0.00523   0.05022  -0.01522
  36        3S          0.00015  -0.00012   0.00310  -0.00668  -0.00063
  37        4PX        -0.00023  -0.00018  -0.00132   0.00731  -0.00006
  38        4PY         0.00004  -0.00002   0.00043  -0.00170  -0.00263
  39        4PZ         0.00004  -0.00002   0.00189  -0.00677   0.00213
  40 4   N  1S          0.55768  -0.00916  -0.00002  -0.07422  -0.09191
  41        2S          0.46614  -0.00765  -0.00010  -0.11774  -0.14720
  42        2PX        -0.00097   0.00005   0.00007  -0.02686  -0.01929
  43        2PY         0.00112  -0.00012  -0.00007   0.03779  -0.02254
  44        2PZ         0.00000   0.00000   0.00000   0.00007  -0.00002
  45        3S          0.01336  -0.00060   0.00051   0.33051   0.43027
  46        3PX         0.00011  -0.00010  -0.00065  -0.04253  -0.03431
  47        3PY        -0.00015   0.00038   0.00049   0.06034  -0.03200
  48        3PZ         0.00000   0.00000   0.00000   0.00011  -0.00002
  49        4S         -0.01258   0.00220   0.00216   0.25296   0.39308
  50        4PX         0.00245   0.00006  -0.00117  -0.02999  -0.03161
  51        4PY        -0.00314   0.00192   0.00009   0.03578  -0.00385
  52        4PZ        -0.00001   0.00000  -0.00001   0.00013   0.00003
  53        5S          0.01011  -0.00305   0.00243  -0.05274  -0.07476
  54        5PX        -0.00138  -0.00015  -0.00086   0.01627   0.01544
  55        5PY         0.00244  -0.00190   0.00050  -0.01051  -0.02703
  56        5PZ         0.00000   0.00000   0.00000  -0.00003  -0.00003
  57        6D 0       -0.00018   0.00004  -0.00008  -0.00207   0.00103
  58        6D+1        0.00000   0.00000   0.00000   0.00000   0.00000
  59        6D-1        0.00000   0.00000   0.00000   0.00001  -0.00001
  60        6D+2       -0.00006   0.00004   0.00005  -0.00104   0.00278
  61        6D-2       -0.00018  -0.00001  -0.00013  -0.00230   0.00008
  62        7D 0        0.00087  -0.00044   0.00003  -0.00956  -0.00248
  63        7D+1        0.00000   0.00000   0.00001  -0.00005  -0.00001
  64        7D-1        0.00000   0.00000   0.00000   0.00004  -0.00001
  65        7D+2        0.00027  -0.00062   0.00006  -0.00486   0.00733
  66        7D-2        0.00071  -0.00001   0.00005  -0.01094  -0.00562
  67 5   N  1S          0.00915   0.55767  -0.00001  -0.07081   0.09005
  68        2S          0.00765   0.46615  -0.00007  -0.11233   0.14418
  69        2PX         0.00001  -0.00072   0.00004  -0.02043   0.02109
  70        2PY         0.00008  -0.00117   0.00008  -0.03918  -0.02123
  71        2PZ         0.00000   0.00000   0.00000  -0.00010   0.00002
  72        3S         -0.00017   0.01334   0.00016   0.31500  -0.42084
  73        3PX        -0.00006   0.00005  -0.00048  -0.03193   0.03602
  74        3PY        -0.00037   0.00017  -0.00047  -0.06270  -0.03006
  75        3PZ         0.00000   0.00000   0.00000  -0.00017   0.00003
  76        4S          0.00176  -0.01249   0.00282   0.24317  -0.38595
  77        4PX         0.00042   0.00215  -0.00139  -0.02623   0.03203
  78        4PY        -0.00191   0.00335  -0.00110  -0.03577  -0.00147
  79        4PZ         0.00000   0.00001   0.00000  -0.00013   0.00008
  80        5S         -0.00274   0.01013   0.00193  -0.04403   0.07396
  81        5PX        -0.00031  -0.00118  -0.00069   0.01372  -0.01335
  82        5PY         0.00186  -0.00273  -0.00006   0.00904  -0.02932
  83        5PZ         0.00000  -0.00001   0.00001   0.00004  -0.00006
  84        6D 0        0.00003  -0.00018  -0.00006  -0.00179  -0.00133
  85        6D+1        0.00000   0.00000   0.00000   0.00000   0.00000
  86        6D-1        0.00000   0.00000   0.00000   0.00001   0.00001
  87        6D+2        0.00005  -0.00009   0.00004  -0.00194  -0.00258
  88        6D-2        0.00002   0.00016   0.00008   0.00189  -0.00040
  89        7D 0       -0.00042   0.00086  -0.00010  -0.00880   0.00205
  90        7D+1        0.00000   0.00000   0.00000   0.00004  -0.00002
  91        7D-1        0.00000   0.00000   0.00000   0.00006   0.00001
  92        7D+2       -0.00069   0.00040  -0.00010  -0.00675  -0.00584
  93        7D-2       -0.00008  -0.00066   0.00019   0.00913  -0.00739
                           6         7         8         9        10
                           O         O         O         O         O
     Eigenvalues --    -0.67449  -0.49611  -0.42253  -0.35582  -0.33098
   1 1   C  1S         -0.09466   0.00001  -0.01041  -0.00159  -0.00884
   2        2S         -0.14925   0.00002  -0.01698  -0.00277  -0.01423
   3        2PX        -0.06906  -0.00027   0.14967   0.04219  -0.02981
   4        2PY         0.00952  -0.00250  -0.01486  -0.06791  -0.15269
   5        2PZ         0.00020   0.20788   0.00007  -0.00065  -0.00097
   6        3S          0.40660  -0.00008   0.04665   0.00584   0.04474
   7        3PX        -0.08833  -0.00038   0.23623   0.06821  -0.04890
   8        3PY         0.01017  -0.00337  -0.02105  -0.10624  -0.24313
   9        3PZ         0.00026   0.28414   0.00008  -0.00106  -0.00161
  10        4S          0.29720   0.00007   0.07148   0.04996   0.02839
  11        4PX        -0.03506  -0.00011   0.17859   0.05381  -0.04630
  12        4PY         0.00476  -0.00175  -0.01654  -0.08085  -0.20950
  13        4PZ         0.00010   0.15873  -0.00003  -0.00092  -0.00211
  14        5S          0.01002   0.00008  -0.00840   0.02389  -0.00400
  15        5PX        -0.00963   0.00001  -0.00222   0.00852  -0.00305
  16        5PY         0.00216  -0.00029  -0.00543  -0.01178  -0.02817
  17        5PZ         0.00003   0.02127  -0.00004  -0.00007  -0.00056
  18        6D 0        0.00879   0.00009  -0.00760  -0.00382   0.00190
  19        6D+1       -0.00004  -0.01006   0.00002  -0.00004  -0.00029
  20        6D-1       -0.00021   0.00406   0.00012   0.00008  -0.00001
  21        6D+2        0.00064   0.00006   0.00252  -0.00592   0.00357
  22        6D-2       -0.00252   0.00016   0.00102  -0.00394  -0.00797
  23        7D 0        0.00169   0.00002  -0.02382  -0.00511   0.00592
  24        7D+1       -0.00002   0.01332   0.00011  -0.00013  -0.00110
  25        7D-1       -0.00005   0.00101   0.00028  -0.00001  -0.00004
  26        7D+2        0.00201   0.00000   0.01363  -0.01600   0.01114
  27        7D-2       -0.00217  -0.00013   0.00380  -0.00786  -0.01945
  28 2   H  1S          0.10699  -0.14033  -0.05461  -0.02793   0.00683
  29        2S          0.13891  -0.21916  -0.07108  -0.04271   0.01123
  30        3S         -0.00283  -0.03767  -0.02159  -0.02695   0.01259
  31        4PX         0.00677  -0.01252   0.00682   0.00077  -0.00177
  32        4PY        -0.00323   0.00482   0.00008  -0.00413  -0.01233
  33        4PZ         0.01843  -0.01553  -0.00763  -0.00399   0.00029
  34 3   H  1S          0.10713   0.14041  -0.05441  -0.02776   0.00895
  35        2S          0.13907   0.21925  -0.07064  -0.04243   0.01376
  36        3S         -0.00278   0.03768  -0.02144  -0.02694   0.01532
  37        4PX         0.00681   0.01253   0.00684   0.00076  -0.00167
  38        4PY        -0.00275  -0.00438  -0.00008  -0.00424  -0.01233
  39        4PZ        -0.01850  -0.01564   0.00760   0.00383  -0.00065
  40 4   N  1S          0.03139   0.00036   0.03538  -0.00384   0.02265
  41        2S          0.05033   0.00057   0.05738  -0.00631   0.03706
  42        2PX        -0.03165  -0.00046  -0.13589  -0.14192  -0.09449
  43        2PY        -0.01455   0.00008   0.09563  -0.15088   0.08271
  44        2PZ        -0.00001   0.05177   0.00015  -0.00120  -0.00453
  45        3S         -0.14861  -0.00173  -0.17417   0.02176  -0.11909
  46        3PX        -0.04837  -0.00067  -0.20415  -0.21616  -0.14248
  47        3PY        -0.02399   0.00010   0.14444  -0.22894   0.12494
  48        3PZ        -0.00001   0.07969   0.00020  -0.00182  -0.00684
  49        4S         -0.13454  -0.00196  -0.22338   0.01735  -0.12186
  50        4PX        -0.02552  -0.00040  -0.14305  -0.17422  -0.11898
  51        4PY        -0.01716  -0.00003   0.10087  -0.19454   0.11550
  52        4PZ        -0.00001   0.06000   0.00019  -0.00160  -0.00615
  53        5S         -0.00741   0.00001  -0.04957  -0.02239  -0.05649
  54        5PX         0.00165   0.00004   0.00175  -0.00708   0.00173
  55        5PY         0.00003   0.00024  -0.00072  -0.01728   0.01284
  56        5PZ         0.00005  -0.00536  -0.00006  -0.00008  -0.00073
  57        6D 0       -0.00048  -0.00001  -0.00349   0.00055  -0.00234
  58        6D+1        0.00000  -0.00241  -0.00001   0.00001   0.00006
  59        6D-1        0.00000   0.00191   0.00001  -0.00003  -0.00008
  60        6D+2        0.00289   0.00002   0.00114   0.00642   0.00184
  61        6D-2       -0.00161   0.00000  -0.00582  -0.00119   0.00035
  62        7D 0        0.00001   0.00001  -0.01188   0.00203  -0.01078
  63        7D+1       -0.00002  -0.01005  -0.00005   0.00010   0.00027
  64        7D-1       -0.00002   0.00870   0.00004  -0.00019  -0.00052
  65        7D+2        0.01168   0.00008   0.00272   0.02975   0.00485
  66        7D-2       -0.00286   0.00006  -0.02071   0.00010  -0.00072
  67 5   N  1S          0.04777  -0.00048   0.02538  -0.02251  -0.01480
  68        2S          0.07658  -0.00077   0.04115  -0.03678  -0.02418
  69        2PX        -0.03138   0.00073  -0.09837  -0.04616   0.20316
  70        2PY         0.00715   0.00026  -0.09235   0.17153  -0.01002
  71        2PZ        -0.00001   0.04995  -0.00016  -0.00044  -0.00427
  72        3S         -0.22566   0.00234  -0.12475   0.11761   0.07634
  73        3PX        -0.04803   0.00108  -0.14708  -0.07044   0.30603
  74        3PY         0.01260   0.00038  -0.13985   0.25994  -0.01541
  75        3PZ        -0.00002   0.07683  -0.00022  -0.00066  -0.00647
  76        4S         -0.20436   0.00244  -0.16409   0.12120   0.08920
  77        4PX        -0.02465   0.00079  -0.10567  -0.05747   0.25625
  78        4PY         0.01389   0.00014  -0.09725   0.22194  -0.01114
  79        4PZ         0.00002   0.06165  -0.00018  -0.00059  -0.00586
  80        5S          0.00372  -0.00001  -0.02282   0.04158   0.04807
  81        5PX         0.00079  -0.00004  -0.00400  -0.01354   0.01664
  82        5PY        -0.00747   0.00020  -0.00008   0.01545  -0.00331
  83        5PZ        -0.00009  -0.00299   0.00009  -0.00015  -0.00074
  84        6D 0       -0.00081   0.00002  -0.00269   0.00241   0.00147
  85        6D+1        0.00001  -0.00186   0.00001   0.00001   0.00003
  86        6D-1        0.00000  -0.00196   0.00001   0.00000   0.00009
  87        6D+2        0.00222  -0.00002  -0.00089   0.00329  -0.00455
  88        6D-2        0.00208  -0.00002   0.00510   0.00128  -0.00248
  89        7D 0       -0.00013   0.00001  -0.00952   0.00987   0.00800
  90        7D+1        0.00003  -0.01048   0.00005   0.00004   0.00013
  91        7D-1       -0.00002  -0.00994   0.00006   0.00003   0.00058
  92        7D+2        0.01072  -0.00013  -0.00368   0.01723  -0.01904
  93        7D-2        0.00410   0.00001   0.01868   0.00052  -0.01002
                          11        12        13        14        15
                           O         V         V         V         V
     Eigenvalues --    -0.30561  -0.16910  -0.04401  -0.02294   0.01378
   1 1   C  1S         -0.00022  -0.00010   0.00190   0.00880   0.05270
   2        2S         -0.00036  -0.00016   0.00316   0.01476   0.08810
   3        2PX        -0.00046  -0.00015  -0.00067   0.02594  -0.01747
   4        2PY        -0.00277   0.00005   0.06862   0.17788  -0.01241
   5        2PZ        -0.06536  -0.00688   0.00051   0.00258  -0.00021
   6        3S          0.00112   0.00047  -0.00991  -0.04454  -0.29366
   7        3PX        -0.00076  -0.00011   0.00009   0.04503  -0.02323
   8        3PY        -0.00465  -0.00003   0.10899   0.26668  -0.03016
   9        3PZ        -0.08558  -0.00357   0.00086   0.00417  -0.00056
  10        4S          0.00097   0.00099  -0.02118  -0.13273  -0.61399
  11        4PX        -0.00084  -0.00062   0.01447   0.08895   0.08456
  12        4PY        -0.00460   0.00007   0.10546   0.47695  -0.01172
  13        4PZ        -0.03604  -0.00449   0.00161   0.00750  -0.00050
  14        5S          0.00015   0.00105  -0.04256   0.08066   1.79404
  15        5PX        -0.00004  -0.00016   0.01113   0.05579  -0.46058
  16        5PY        -0.00064   0.00028  -0.05411   0.62603   0.16670
  17        5PZ         0.00171  -0.01119   0.00107   0.00463   0.00234
  18        6D 0       -0.00001   0.00000   0.00027   0.00257  -0.00273
  19        6D+1        0.01337  -0.00113   0.00001  -0.00002   0.00001
  20        6D-1       -0.00209   0.00539  -0.00001  -0.00009   0.00003
  21        6D+2        0.00003   0.00000  -0.00166   0.00231   0.00078
  22        6D-2       -0.00034   0.00001   0.00420  -0.01864   0.00010
  23        7D 0        0.00011   0.00010  -0.00351  -0.00601  -0.05630
  24        7D+1        0.03852  -0.00836  -0.00016  -0.00010   0.00019
  25        7D-1        0.00008   0.03282   0.00011   0.00019   0.00073
  26        7D+2        0.00018   0.00012  -0.00340   0.00390   0.02067
  27        7D-2       -0.00085   0.00009   0.00185  -0.05748   0.00702
  28 2   H  1S          0.06636  -0.00095   0.00366   0.02402  -0.00341
  29        2S          0.10726   0.00951   0.00872   0.05909   0.13430
  30        3S          0.08516  -0.01804   0.01386   0.06309  -0.22389
  31        4PX         0.00482   0.00051   0.00125   0.00418  -0.00980
  32        4PY        -0.00173  -0.00017   0.00454   0.02361  -0.00096
  33        4PZ         0.00490   0.00310   0.00181   0.00203  -0.00704
  34 3   H  1S         -0.06625   0.00073   0.00341   0.02271  -0.00340
  35        2S         -0.10702  -0.00951   0.00792   0.05587   0.13488
  36        3S         -0.08481   0.01605   0.01294   0.05780  -0.22456
  37        4PX        -0.00491  -0.00054   0.00121   0.00421  -0.00978
  38        4PY         0.00098   0.00000   0.00467   0.02368  -0.00111
  39        4PZ         0.00492   0.00292  -0.00153  -0.00133   0.00696
  40 4   N  1S          0.00040   0.00000   0.02469  -0.02202  -0.00474
  41        2S          0.00066   0.00000   0.04053  -0.03616  -0.00748
  42        2PX        -0.00324   0.00026  -0.06787  -0.13971  -0.05626
  43        2PY         0.00086   0.00040  -0.21752   0.02284   0.02239
  44        2PZ         0.19601  -0.21435  -0.00067  -0.00096  -0.00003
  45        3S         -0.00214  -0.00004  -0.13686   0.11854   0.02074
  46        3PX        -0.00486   0.00040  -0.09341  -0.20921  -0.07721
  47        3PY         0.00129   0.00059  -0.32567   0.03360   0.03063
  48        3PZ         0.29511  -0.32126  -0.00100  -0.00142  -0.00003
  49        4S         -0.00225   0.00017  -0.20670   0.20109   0.04967
  50        4PX        -0.00412   0.00027  -0.11427  -0.24093  -0.08441
  51        4PY         0.00136   0.00065  -0.38308   0.06619   0.03649
  52        4PZ         0.27389  -0.31807  -0.00115  -0.00170  -0.00007
  53        5S         -0.00054  -0.00022  -0.44811   0.47895  -0.30449
  54        5PX        -0.00037   0.00011  -0.04535  -0.25901   0.05660
  55        5PY         0.00043   0.00017  -0.35602   0.06325  -0.05347
  56        5PZ         0.04272  -0.10388  -0.00126  -0.00128   0.00100
  57        6D 0       -0.00004   0.00001  -0.00195   0.00169   0.00036
  58        6D+1       -0.00140   0.00190   0.00000  -0.00004   0.00002
  59        6D-1        0.00323   0.00080   0.00002   0.00000   0.00000
  60        6D+2        0.00008   0.00000  -0.00482  -0.00007  -0.00233
  61        6D-2        0.00001   0.00000   0.00212  -0.00047   0.00132
  62        7D 0       -0.00015   0.00001  -0.00736   0.00346   0.00715
  63        7D+1       -0.00623   0.01187  -0.00001  -0.00017  -0.00005
  64        7D-1        0.02129   0.00361   0.00007   0.00000   0.00001
  65        7D+2        0.00024   0.00001  -0.01884  -0.00444  -0.01377
  66        7D-2       -0.00001  -0.00003   0.01431  -0.00297   0.01234
  67 5   N  1S         -0.00030   0.00000  -0.02538   0.02337  -0.00604
  68        2S         -0.00050   0.00000  -0.04162   0.03833  -0.00969
  69        2PX         0.00489  -0.00012   0.08107   0.14206  -0.04930
  70        2PY         0.00010  -0.00045  -0.20861   0.05011  -0.04315
  71        2PZ         0.18571   0.22406  -0.00054  -0.00037   0.00001
  72        3S          0.00159   0.00001   0.14036  -0.12375   0.03063
  73        3PX         0.00732  -0.00020   0.11394   0.21164  -0.06822
  74        3PY         0.00015  -0.00068  -0.31256   0.07502  -0.06363
  75        3PZ         0.27987   0.33657  -0.00081  -0.00053  -0.00005
  76        4S          0.00191   0.00008   0.20584  -0.23719   0.05699
  77        4PX         0.00628  -0.00023   0.13922   0.26349  -0.06898
  78        4PY         0.00024  -0.00064  -0.36682   0.12338  -0.05177
  79        4PZ         0.26092   0.33417  -0.00100  -0.00075   0.00022
  80        5S          0.00027  -0.00010   0.45894  -0.61115  -0.35556
  81        5PX         0.00075  -0.00002   0.06732   0.27792   0.10979
  82        5PY         0.00022  -0.00046  -0.35376   0.12594  -0.04342
  83        5PZ         0.04293   0.11353  -0.00088  -0.00070  -0.00219
  84        6D 0        0.00003   0.00000   0.00210  -0.00192   0.00038
  85        6D+1       -0.00070  -0.00149   0.00000  -0.00003  -0.00001
  86        6D-1       -0.00323   0.00067  -0.00002   0.00000   0.00000
  87        6D+2       -0.00010   0.00000   0.00438   0.00050  -0.00204
  88        6D-2       -0.00005   0.00000   0.00273   0.00098  -0.00144
  89        7D 0        0.00012  -0.00002   0.00760  -0.00027   0.01088
  90        7D+1       -0.00276  -0.01150   0.00002  -0.00004   0.00005
  91        7D-1       -0.02146   0.00165  -0.00003   0.00001   0.00001
  92        7D+2       -0.00036   0.00004   0.01614   0.00345  -0.00893
  93        7D-2       -0.00020   0.00002   0.01751   0.00112  -0.01600
                          16        17        18        19        20
                           V         V         V         V         V
     Eigenvalues --     0.03582   0.05125   0.08710   0.10508   0.13021
   1 1   C  1S         -0.01279   0.00000   0.00689   0.05100   0.00511
   2        2S         -0.01980   0.00001   0.01142   0.08277   0.00815
   3        2PX         0.10679  -0.00005   0.01677  -0.12875  -0.14435
   4        2PY        -0.00357   0.00093   0.13260  -0.01831   0.03435
   5        2PZ        -0.00023  -0.09010   0.00174  -0.00024   0.00042
   6        3S          0.03224  -0.00014  -0.03279  -0.22673  -0.03247
   7        3PX         0.14871   0.00005   0.02025  -0.20180  -0.24155
   8        3PY        -0.00694   0.00210   0.20248  -0.02721   0.04294
   9        3PZ        -0.00042  -0.17719   0.00231  -0.00040   0.00058
  10        4S          0.36438   0.00053  -0.17804  -1.16871   0.46744
  11        4PX         0.50144   0.00048   0.12751  -0.31628  -1.04564
  12        4PY        -0.01124   0.00260   0.43272  -0.08608   0.21661
  13        4PZ        -0.00021  -0.28315   0.00731  -0.00102   0.00477
  14        5S          3.80424  -0.00647  -0.31977   1.34879   0.78288
  15        5PX         1.75923  -0.00305  -0.12413   1.99780   0.36237
  16        5PY         0.00438  -0.01825  -1.81379  -0.05354  -0.23609
  17        5PZ         0.00361   1.64926  -0.00980   0.00035   0.00299
  18        6D 0        0.00895  -0.00001   0.00213   0.00136  -0.02005
  19        6D+1       -0.00001  -0.00014   0.00004  -0.00002   0.00006
  20        6D-1       -0.00004  -0.00074  -0.00007  -0.00011   0.00021
  21        6D+2       -0.00526   0.00000   0.00113   0.00410   0.00805
  22        6D-2        0.00097  -0.00006  -0.00947  -0.00149  -0.00029
  23        7D 0        0.03039  -0.00051  -0.00706   0.01242   0.05305
  24        7D+1        0.00001   0.01940   0.00024  -0.00001  -0.00055
  25        7D-1       -0.00011  -0.01720   0.00002  -0.00058  -0.00073
  26        7D+2       -0.01087  -0.00011   0.00315   0.00716  -0.02739
  27        7D-2        0.01014  -0.00062   0.01306  -0.00420  -0.01584
  28 2   H  1S         -0.00323   0.01769   0.01502   0.04309  -0.02520
  29        2S          0.03092  -0.13816   0.02989   0.08071  -0.19520
  30        3S         -0.09136   0.34826   0.18248   0.51113  -0.62722
  31        4PX         0.01128   0.00439   0.00126  -0.00513  -0.02310
  32        4PY         0.00108  -0.00144   0.00510  -0.00198   0.00465
  33        4PZ        -0.01378   0.00514   0.00214  -0.00358   0.01124
  34 3   H  1S         -0.00324  -0.01755   0.01418   0.04312  -0.02542
  35        2S          0.03123   0.13830   0.02836   0.08088  -0.19675
  36        3S         -0.09243  -0.34692   0.17526   0.51034  -0.63680
  37        4PX         0.01124  -0.00440   0.00138  -0.00511  -0.02320
  38        4PY         0.00085   0.00139   0.00518  -0.00207   0.00455
  39        4PZ         0.01392   0.00516  -0.00187   0.00346  -0.01099
  40 4   N  1S          0.02761  -0.00013  -0.01198  -0.01601  -0.00871
  41        2S          0.04626  -0.00021  -0.01860  -0.02559  -0.01345
  42        2PX         0.05220  -0.00024  -0.04967  -0.06606  -0.08522
  43        2PY        -0.00427   0.00057   0.08176   0.03381   0.04989
  44        2PZ        -0.00006  -0.01498  -0.00008  -0.00035   0.00060
  45        3S         -0.16598   0.00079   0.03839   0.06588   0.01966
  46        3PX         0.08005  -0.00031  -0.06519  -0.11115  -0.12367
  47        3PY        -0.00962   0.00094   0.12705   0.05820   0.06285
  48        3PZ        -0.00009  -0.02914  -0.00008  -0.00039   0.00074
  49        4S         -0.20009   0.00068   0.31143   0.35264   0.44886
  50        4PX         0.15272  -0.00023  -0.16883  -0.12012  -0.36978
  51        4PY        -0.04194   0.00038   0.15622   0.07003   0.20935
  52        4PZ        -0.00022  -0.00147  -0.00035  -0.00119   0.00167
  53        5S         -2.07643   0.00225  -1.77839  -1.50543   0.54940
  54        5PX         0.60346   0.00087   0.49353  -0.24773   0.08220
  55        5PY        -0.21571   0.00638  -0.29874   0.12284  -0.08974
  56        5PZ         0.00052  -0.29224  -0.00021   0.00363  -0.00755
  57        6D 0       -0.00102   0.00000   0.00192   0.00323  -0.00036
  58        6D+1        0.00000   0.00078  -0.00003   0.00000  -0.00002
  59        6D-1       -0.00001  -0.00099   0.00001   0.00000   0.00003
  60        6D+2        0.00278   0.00000  -0.00062  -0.00441  -0.00600
  61        6D-2       -0.00254   0.00000  -0.00020   0.00421   0.00316
  62        7D 0        0.01282   0.00009   0.00438   0.01655  -0.00841
  63        7D+1        0.00000   0.00735  -0.00013   0.00001   0.00016
  64        7D-1       -0.00007  -0.00956   0.00004  -0.00007   0.00005
  65        7D+2        0.00764  -0.00005   0.00091  -0.01529   0.00505
  66        7D-2        0.00167   0.00004  -0.00463   0.01237  -0.00531
  67 5   N  1S          0.02399   0.00003   0.00991  -0.01499   0.00303
  68        2S          0.04024   0.00005   0.01489  -0.02402   0.00604
  69        2PX         0.03277   0.00019   0.04690  -0.05753  -0.06506
  70        2PY         0.00626   0.00073   0.09781  -0.02704  -0.07954
  71        2PZ         0.00012  -0.01962   0.00034   0.00046  -0.00100
  72        3S         -0.14509  -0.00010  -0.01928   0.06319  -0.04722
  73        3PX         0.05176   0.00025   0.06029  -0.09804  -0.08954
  74        3PY         0.01541   0.00112   0.14718  -0.04810  -0.08754
  75        3PZ         0.00018  -0.03349   0.00047   0.00054  -0.00118
  76        4S         -0.17126  -0.00084  -0.35956   0.31774   0.26265
  77        4PX         0.10729   0.00084   0.19305  -0.09758  -0.28774
  78        4PY         0.03052   0.00113   0.22682  -0.06081  -0.39261
  79        4PZ         0.00032  -0.01518   0.00079   0.00146  -0.00337
  80        5S         -1.62206   0.00207   2.05136  -1.16527  -0.56521
  81        5PX         0.45706  -0.00231  -0.50256  -0.32307   0.32664
  82        5PY         0.19928   0.00416  -0.40878  -0.17502   1.20256
  83        5PZ        -0.00092  -0.19015  -0.00170  -0.00367   0.00851
  84        6D 0       -0.00072  -0.00001  -0.00202   0.00328  -0.00083
  85        6D+1        0.00000   0.00118  -0.00002   0.00000  -0.00001
  86        6D-1        0.00000   0.00125  -0.00001  -0.00001   0.00002
  87        6D+2        0.00231   0.00001   0.00051  -0.00378  -0.00234
  88        6D-2        0.00280   0.00000   0.00124  -0.00498  -0.00293
  89        7D 0        0.01268  -0.00005  -0.00260   0.01591  -0.01958
  90        7D+1        0.00006   0.00138  -0.00005   0.00000  -0.00017
  91        7D-1       -0.00003   0.00792  -0.00006  -0.00008   0.00010
  92        7D+2        0.00586  -0.00011  -0.00369  -0.01396  -0.01028
  93        7D-2       -0.00162   0.00000  -0.00553  -0.01504   0.01478
                          21        22        23        24        25
                           V         V         V         V         V
     Eigenvalues --     0.13814   0.15130   0.15774   0.15924   0.19912
   1 1   C  1S          0.00061  -0.00008   0.02630   0.00070  -0.03373
   2        2S          0.00112  -0.00013   0.04257   0.00115  -0.05462
   3        2PX        -0.03680   0.00043  -0.05117  -0.00244  -0.08331
   4        2PY        -0.03274  -0.00044  -0.00807   0.00073   0.03756
   5        2PZ         0.00068   0.06129   0.00083  -0.03037   0.00251
   6        3S         -0.00810   0.00028  -0.11254  -0.00351   0.12066
   7        3PX        -0.06552   0.00083  -0.11251  -0.00428  -0.08496
   8        3PY        -0.00685  -0.00031  -0.00589   0.00102   0.04874
   9        3PZ         0.00118   0.05830   0.00094  -0.03096   0.00291
  10        4S          0.17990   0.00034  -0.55576  -0.00949   1.52487
  11        4PX        -0.32890   0.00437  -0.27957  -0.01366  -0.75954
  12        4PY        -0.12340  -0.00322  -0.05307   0.00645   0.31360
  13        4PZ         0.00424   0.25330   0.00873  -0.30144   0.02236
  14        5S          0.17014  -0.00702   0.24723   0.07488   5.21273
  15        5PX         0.03493  -0.00275   0.22631   0.02694   0.91613
  16        5PY         0.73979  -0.00832  -0.04610   0.00763   0.40503
  17        5PZ         0.00486  -0.55816   0.01246  -0.54610   0.03442
  18        6D 0       -0.00615   0.00006  -0.00495  -0.00021  -0.01366
  19        6D+1        0.00006   0.00191   0.00010  -0.00360   0.00026
  20        6D-1        0.00003  -0.00112  -0.00014   0.00216   0.00032
  21        6D+2        0.00373  -0.00007   0.00664   0.00017  -0.00425
  22        6D-2       -0.00441   0.00001  -0.00024  -0.00003  -0.00135
  23        7D 0        0.01940  -0.00065   0.03229   0.00111  -0.01300
  24        7D+1       -0.00003   0.05211  -0.00029   0.00233   0.00041
  25        7D-1       -0.00031  -0.01572  -0.00197   0.03544   0.00069
  26        7D+2       -0.01338  -0.00014   0.01870   0.00094  -0.02111
  27        7D-2        0.00053  -0.00054  -0.00707  -0.00012   0.00292
  28 2   H  1S         -0.00550   0.01119   0.02077  -0.01288  -0.06502
  29        2S         -0.05214  -0.06017  -0.04082  -0.04649  -0.12147
  30        3S         -0.18209   0.70866   0.69500  -0.48042  -2.51764
  31        4PX        -0.01035  -0.01407  -0.01610   0.00250   0.00081
  32        4PY         0.00683   0.00425   0.00046  -0.00813   0.00336
  33        4PZ         0.00315  -0.01459  -0.00365   0.00179   0.01631
  34 3   H  1S         -0.00609  -0.01117   0.02009   0.01293  -0.06660
  35        2S         -0.05417   0.06158  -0.04360   0.04230  -0.12643
  36        3S         -0.19776  -0.70692   0.66377   0.48432  -2.58618
  37        4PX        -0.00993   0.01440  -0.01600  -0.00342   0.00144
  38        4PY         0.00673  -0.00391  -0.00033   0.00822   0.00364
  39        4PZ        -0.00314  -0.01463   0.00355   0.00185  -0.01644
  40 4   N  1S          0.00706   0.00004  -0.00782  -0.00040  -0.00425
  41        2S          0.01305   0.00005  -0.01239  -0.00063  -0.00664
  42        2PX        -0.05891   0.00091  -0.10511  -0.00381  -0.00499
  43        2PY         0.08704  -0.00012  -0.01894  -0.00118  -0.01607
  44        2PZ        -0.00030  -0.10167  -0.00325   0.07559  -0.00091
  45        3S         -0.07740   0.00021   0.02636   0.00133   0.00984
  46        3PX        -0.06570   0.00116  -0.12688  -0.00465  -0.00864
  47        3PY         0.09584  -0.00025  -0.00627  -0.00042   0.00169
  48        3PZ        -0.00036  -0.10589  -0.00337   0.07976  -0.00088
  49        4S          0.17314  -0.00412   0.24529   0.01188   0.19026
  50        4PX        -0.28802   0.00433  -0.41240  -0.01487  -0.06303
  51        4PY         0.43922  -0.00110  -0.08077  -0.00566  -0.09171
  52        4PZ        -0.00090  -0.41614  -0.01296   0.29714  -0.00430
  53        5S         -2.24897   0.02072  -0.46236  -0.05335  -2.00013
  54        5PX         0.78582  -0.00840   0.69662   0.02351  -0.01761
  55        5PY        -2.14984   0.00960   0.52114   0.03023   0.73090
  56        5PZ        -0.00270   1.08216   0.04703  -1.12876   0.01403
  57        6D 0        0.00086  -0.00002   0.00167   0.00012   0.00222
  58        6D+1       -0.00002   0.00034  -0.00004   0.00102  -0.00005
  59        6D-1        0.00000  -0.00074  -0.00004   0.00072   0.00000
  60        6D+2        0.00164   0.00000   0.00078   0.00006   0.00190
  61        6D-2        0.00003   0.00000   0.00118   0.00006   0.00240
  62        7D 0       -0.02424   0.00012   0.00119   0.00034   0.00572
  63        7D+1        0.00000   0.01417   0.00011   0.00019   0.00003
  64        7D-1        0.00007  -0.01086  -0.00054   0.01223  -0.00016
  65        7D+2       -0.01185  -0.00010   0.01311   0.00052   0.00738
  66        7D-2       -0.02517   0.00018  -0.00477   0.00005   0.01296
  67 5   N  1S         -0.00894   0.00005  -0.00698  -0.00025   0.00037
  68        2S         -0.01547   0.00009  -0.01090  -0.00040   0.00050
  69        2PX         0.00642   0.00026  -0.11173  -0.00334   0.01912
  70        2PY         0.05232  -0.00023   0.01014   0.00158   0.03757
  71        2PZ        -0.00057  -0.07724   0.00325  -0.09425   0.00062
  72        3S          0.06657  -0.00030   0.01901   0.00088  -0.00116
  73        3PX        -0.00678   0.00034  -0.13003  -0.00388   0.02229
  74        3PY         0.05505  -0.00019  -0.00383   0.00096   0.02630
  75        3PZ        -0.00071  -0.08103   0.00324  -0.09290   0.00017
  76        4S          0.08376  -0.00101   0.25201   0.00760   0.00717
  77        4PX         0.03352   0.00123  -0.44827  -0.01272   0.07087
  78        4PY         0.26020  -0.00107   0.03954   0.00745   0.19296
  79        4PZ        -0.00167  -0.31277   0.01325  -0.39001   0.00425
  80        5S          2.26751  -0.01198  -0.63946  -0.04811  -1.83735
  81        5PX        -0.40589  -0.00018   0.91030   0.03167   0.07501
  82        5PY        -1.76724   0.01264  -0.33787  -0.03659  -1.03581
  83        5PZ         0.00031   0.76118  -0.05527   1.67522  -0.03746
  84        6D 0       -0.00153   0.00000   0.00172   0.00008   0.00053
  85        6D+1       -0.00001   0.00102  -0.00002   0.00131  -0.00012
  86        6D-1        0.00002   0.00074  -0.00006   0.00189  -0.00007
  87        6D+2       -0.00374   0.00002   0.00104   0.00010   0.00344
  88        6D-2       -0.00213   0.00001  -0.00093  -0.00004  -0.00124
  89        7D 0        0.01209  -0.00003   0.00047   0.00040   0.00689
  90        7D+1       -0.00010   0.00943  -0.00011   0.00430  -0.00051
  91        7D-1       -0.00007   0.00625  -0.00060   0.01568  -0.00030
  92        7D+2        0.01707  -0.00014   0.01114   0.00049   0.00905
  93        7D-2       -0.01185  -0.00002   0.00884   0.00001  -0.01340
                          26        27        28        29        30
                           V         V         V         V         V
     Eigenvalues --     0.20701   0.22093   0.25857   0.27641   0.39307
   1 1   C  1S          0.00039  -0.00167  -0.01953   0.00564   0.00944
   2        2S          0.00063  -0.00291  -0.03105   0.00890   0.02680
   3        2PX         0.00096   0.00120   0.02123   0.00084  -0.15394
   4        2PY        -0.00326   0.01455   0.00860   0.06983  -0.00751
   5        2PZ         0.16851  -0.00022   0.00069   0.00107   0.00016
   6        3S         -0.00116   0.00866   0.03945  -0.01467  -0.26524
   7        3PX         0.00119   0.00541   0.02736   0.00022  -0.33881
   8        3PY        -0.00422  -0.00470   0.01238   0.08545  -0.05142
   9        3PZ         0.19326  -0.00061   0.00061   0.00082  -0.00166
  10        4S         -0.02181   0.05512   1.54121  -0.36695   0.78961
  11        4PX         0.00816   0.01717   0.74440  -0.21039   2.52550
  12        4PY        -0.02998   0.13498   0.10407   0.80864  -0.24475
  13        4PZ         1.57439  -0.00105   0.00502   0.00567  -0.01133
  14        5S         -0.05716   0.16342   7.24983  -1.10431   0.72990
  15        5PX        -0.01108  -0.02512   2.82768  -0.41753  -1.12206
  16        5PY        -0.03425   1.97732   0.24632   0.91077   0.12547
  17        5PZ         2.31905   0.00300   0.01134   0.01120   0.00676
  18        6D 0        0.00007   0.00000   0.00117  -0.00043   0.04044
  19        6D+1        0.01744  -0.00002   0.00004   0.00005  -0.00023
  20        6D-1       -0.00610   0.00002  -0.00008   0.00000  -0.00062
  21        6D+2       -0.00012  -0.00073   0.00398   0.00077  -0.01123
  22        6D-2        0.00000   0.00373  -0.00036  -0.00445  -0.00356
  23        7D 0        0.00010  -0.00164  -0.05224   0.03791  -0.33813
  24        7D+1        0.02234   0.00011   0.00076   0.00165   0.00245
  25        7D-1        0.00377   0.00002  -0.00008  -0.00099   0.00160
  26        7D+2        0.00013   0.00347   0.05678  -0.01352   0.18850
  27        7D-2       -0.00066  -0.02105   0.01121   0.04941   0.03156
  28 2   H  1S          0.05406  -0.00188   0.01016   0.00460   0.06994
  29        2S          0.18661  -0.00984   0.02896  -0.03559   1.10573
  30        3S          2.86401  -0.04445  -0.03624   0.08908  -0.94371
  31        4PX        -0.02015   0.00058  -0.00795  -0.00395   0.06271
  32        4PY         0.00855  -0.00206  -0.00590  -0.00655  -0.02807
  33        4PZ        -0.00994  -0.00018   0.00177   0.00027   0.02423
  34 3   H  1S         -0.05285  -0.00169   0.00996   0.00385   0.07080
  35        2S         -0.18324  -0.00842   0.03033  -0.03252   1.12345
  36        3S         -2.80419  -0.04073  -0.06055   0.06465  -0.95493
  37        4PX         0.02042   0.00054  -0.00769  -0.00327   0.06302
  38        4PY        -0.00857  -0.00201  -0.00555  -0.00676  -0.02650
  39        4PZ        -0.00966   0.00011  -0.00217  -0.00040  -0.02645
  40 4   N  1S          0.00020  -0.00138  -0.02322   0.01960  -0.00764
  41        2S          0.00031  -0.00181  -0.03661   0.03029  -0.01581
  42        2PX         0.00101   0.06107   0.03007  -0.02176  -0.06409
  43        2PY        -0.00046   0.06245  -0.02148   0.04722   0.02108
  44        2PZ         0.00456   0.00021  -0.00002   0.00003   0.00026
  45        3S         -0.00047  -0.00372   0.08452  -0.05917   0.15624
  46        3PX         0.00132   0.05447   0.02534  -0.01184  -0.06033
  47        3PY        -0.00064   0.06344  -0.01965   0.04044   0.00645
  48        3PZ        -0.01321   0.00025  -0.00002  -0.00012  -0.00016
  49        4S         -0.00858   0.05653   0.94676  -0.92701  -1.15026
  50        4PX         0.00589   0.32351   0.27516  -0.25691   0.55781
  51        4PY        -0.00300   0.32149  -0.08657   0.37941  -0.28895
  52        4PZ         0.07359   0.00080  -0.00004   0.00068   0.00302
  53        5S          0.01491  -1.74836  -4.12504  12.06553  -0.13066
  54        5PX        -0.00237  -2.13940   1.23887  -1.38517   0.18592
  55        5PY         0.00987  -2.31676  -0.03947   4.02476  -0.23352
  56        5PZ        -1.30123  -0.00454  -0.00326   0.00297  -0.00411
  57        6D 0       -0.00006   0.00139  -0.00615   0.00709  -0.00169
  58        6D+1       -0.00659   0.00000  -0.00003  -0.00004   0.00010
  59        6D-1        0.00285  -0.00001   0.00003   0.00000  -0.00002
  60        6D+2        0.00006   0.00043   0.00076   0.00013   0.00133
  61        6D-2        0.00001   0.00062  -0.00708   0.00386  -0.00423
  62        7D 0        0.00004  -0.00354  -0.00300  -0.00458   0.07861
  63        7D+1       -0.02107   0.00008  -0.00003  -0.00011  -0.00046
  64        7D-1        0.00875   0.00005   0.00004   0.00000   0.00012
  65        7D+2       -0.00003  -0.03119  -0.01280   0.00063  -0.08066
  66        7D-2        0.00022   0.01280   0.00893  -0.02093   0.10756
  67 5   N  1S         -0.00001   0.00110  -0.02850  -0.01315  -0.00891
  68        2S         -0.00002   0.00148  -0.04467  -0.01997  -0.01719
  69        2PX        -0.00100  -0.05754   0.02713   0.00802  -0.06797
  70        2PY        -0.00084   0.05630   0.02714   0.04308  -0.01760
  71        2PZ        -0.01836   0.00019   0.00004   0.00003   0.00078
  72        3S         -0.00020   0.00262   0.09620   0.02941   0.13976
  73        3PX        -0.00108  -0.04956   0.01776  -0.00463  -0.06163
  74        3PY        -0.00096   0.05966   0.02174   0.03582   0.00036
  75        3PZ        -0.02439   0.00020  -0.00006  -0.00010   0.00169
  76        4S          0.00132  -0.02167   1.22671   0.73043  -0.84454
  77        4PX        -0.00586  -0.30519   0.25906   0.09541   0.31193
  78        4PY        -0.00433   0.28659   0.14055   0.33949   0.28134
  79        4PZ        -0.07417   0.00086   0.00053   0.00093  -0.00018
  80        5S          0.02763   1.55325  -6.75381 -10.47841   0.56088
  81        5PX         0.00182   2.31733   1.26782   0.67576   0.08660
  82        5PY         0.01115  -1.97696   1.32497   4.01737  -0.11334
  83        5PZ        -0.18548  -0.00426   0.00182   0.00755   0.00168
  84        6D 0        0.00006  -0.00185  -0.00693  -0.00480  -0.00062
  85        6D+1       -0.00425   0.00001   0.00001   0.00000   0.00001
  86        6D-1       -0.00226   0.00001   0.00002   0.00001   0.00001
  87        6D+2       -0.00004  -0.00086  -0.00125  -0.00179  -0.00235
  88        6D-2       -0.00003   0.00115   0.00761   0.00206   0.00448
  89        7D 0       -0.00018   0.00423  -0.00421   0.00392   0.07406
  90        7D+1       -0.00547   0.00005  -0.00009  -0.00018   0.00136
  91        7D-1       -0.00051  -0.00005   0.00001  -0.00009   0.00025
  92        7D+2        0.00017   0.02523  -0.01063   0.00555  -0.04415
  93        7D-2        0.00018   0.01818  -0.01295  -0.00610  -0.10737
                          31        32        33        34        35
                           V         V         V         V         V
     Eigenvalues --     0.42930   0.54472   0.55998   0.58746   0.62780
   1 1   C  1S          0.00002   0.01128  -0.02137  -0.00040  -0.00030
   2        2S          0.00007   0.01749  -0.03141  -0.00066  -0.00059
   3        2PX        -0.00079   0.05184  -0.17326  -0.00155  -0.00082
   4        2PY        -0.00052   0.21985   0.09446   0.00162   0.00250
   5        2PZ        -0.03289   0.00148   0.00232  -0.12476  -0.23815
   6        3S         -0.00005   0.01243  -0.07871   0.00274   0.00314
   7        3PX        -0.00213   0.20010  -0.53956  -0.00526  -0.00330
   8        3PY        -0.00330   0.78179   0.30025   0.00314   0.00682
   9        3PZ         0.05983   0.00805   0.00603  -0.34913  -0.70997
  10        4S         -0.00197  -0.52589   0.99003  -0.00548   0.00137
  11        4PX         0.01050  -0.82510   2.85069   0.02946   0.00606
  12        4PY        -0.02980  -2.41452  -0.84372  -0.02199  -0.03462
  13        4PZ         1.65464  -0.00160  -0.02767   1.70589   2.90406
  14        5S          0.01109  -0.01247  -1.41674   0.01065  -0.00988
  15        5PX        -0.00148   0.00698  -0.08757   0.00979  -0.00336
  16        5PY         0.01344   0.54141  -0.10014  -0.01100  -0.02070
  17        5PZ        -1.10632   0.01189  -0.00444   0.45541   1.06151
  18        6D 0       -0.00001  -0.00337   0.00532  -0.00012   0.00005
  19        6D+1        0.02635   0.00000   0.00022  -0.01269  -0.00776
  20        6D-1       -0.01004  -0.00020   0.00056  -0.00830   0.00640
  21        6D+2       -0.00023   0.00592  -0.02607  -0.00057   0.00020
  22        6D-2       -0.00015   0.02171   0.00678   0.00011   0.00023
  23        7D 0       -0.00120   0.14483  -0.53021  -0.02179   0.01328
  24        7D+1       -0.08121  -0.00378   0.00938  -0.53443  -0.27245
  25        7D-1        0.00541  -0.00660   0.01981  -0.60415   0.58134
  26        7D+2        0.00033   0.11428  -0.11101  -0.02069   0.01850
  27        7D-2        0.00243  -0.10880  -0.06330   0.00176   0.00544
  28 2   H  1S          0.07417   0.01297  -0.08747  -0.05205  -0.07042
  29        2S          1.38532   0.21379  -0.48046   0.21237   0.18200
  30        3S         -1.16352  -0.44281   2.23518   1.49391   2.69569
  31        4PX        -0.00474   0.00811   0.04731   0.04621   0.02133
  32        4PY         0.00280   0.00172  -0.01012   0.03983  -0.04061
  33        4PZ         0.08622  -0.01066   0.02989   0.05699   0.08225
  34 3   H  1S         -0.07371   0.01434  -0.08847   0.04969   0.06973
  35        2S         -1.37119   0.20120  -0.46933  -0.21480  -0.19325
  36        3S          1.15578  -0.46495   2.26501  -1.43906  -2.67961
  37        4PX         0.00566   0.00541   0.04854  -0.04364  -0.02223
  38        4PY        -0.00569   0.00005  -0.00708  -0.04115   0.03787
  39        4PZ         0.08582   0.01175  -0.03230   0.05466   0.08296
  40 4   N  1S          0.00005  -0.00905  -0.00218  -0.00001  -0.00007
  41        2S          0.00006  -0.01841  -0.00636  -0.00002  -0.00014
  42        2PX         0.00042  -0.02672  -0.02546   0.00019  -0.00050
  43        2PY         0.00056   0.02003   0.05084   0.00133  -0.00076
  44        2PZ        -0.08477  -0.00013   0.00051   0.00447   0.03645
  45        3S          0.00038   0.14888   0.12036   0.00044   0.00112
  46        3PX         0.00038  -0.07676  -0.02490   0.00063  -0.00111
  47        3PY         0.00104   0.05726   0.09310   0.00203  -0.00175
  48        3PZ        -0.14260  -0.00020   0.00123   0.01186   0.11219
  49        4S         -0.00719  -0.32885  -1.17033  -0.00860  -0.00765
  50        4PX         0.00663   0.30209   0.94531   0.00836   0.00364
  51        4PY        -0.00202  -0.24509  -0.41901   0.00139  -0.00034
  52        4PZ        -0.15869   0.00034   0.00001  -0.06850  -0.26403
  53        5S         -0.03121  -3.18664  -1.25961   0.00186   0.01383
  54        5PX         0.00687   0.47406   0.57214   0.00693   0.00230
  55        5PY        -0.01203  -1.27015  -0.59034   0.01299   0.01165
  56        5PZ         0.08248  -0.00739   0.00137  -0.45094  -0.32606
  57        6D 0       -0.00004  -0.00411  -0.00338  -0.00004   0.00007
  58        6D+1       -0.00783  -0.00002   0.00011  -0.00353  -0.00044
  59        6D-1        0.00293   0.00000   0.00003  -0.00243   0.00055
  60        6D+2        0.00009  -0.00104   0.00769   0.00030  -0.00014
  61        6D-2        0.00001  -0.00046  -0.00228   0.00025  -0.00017
  62        7D 0       -0.00011   0.04952   0.06127  -0.00266   0.00241
  63        7D+1       -0.08434  -0.00111   0.00122  -0.04947   0.02282
  64        7D-1        0.01876  -0.00001   0.00124  -0.06793  -0.02434
  65        7D+2        0.00002  -0.04688  -0.07368   0.00070  -0.00191
  66        7D-2        0.00120   0.00041   0.18806   0.00541  -0.00266
  67 5   N  1S         -0.00017   0.00766   0.00834   0.00011   0.00004
  68        2S         -0.00026   0.01715   0.01430   0.00023   0.00006
  69        2PX        -0.00067   0.02185   0.01713   0.00101  -0.00012
  70        2PY         0.00010   0.04835  -0.01998  -0.00082   0.00069
  71        2PZ        -0.06634   0.00084  -0.00166   0.07244  -0.03127
  72        3S          0.00039  -0.18511  -0.03663  -0.00135  -0.00012
  73        3PX        -0.00024   0.06182   0.06016   0.00287  -0.00044
  74        3PY         0.00038   0.10651  -0.03826  -0.00144   0.00079
  75        3PZ        -0.09536   0.00214  -0.00398   0.17282  -0.05221
  76        4S          0.00540   0.87628  -0.54507   0.00094   0.00018
  77        4PX        -0.00590  -0.75053   0.45472   0.00204  -0.00076
  78        4PY        -0.00096  -0.54770   0.30222   0.00320   0.00462
  79        4PZ        -0.22659  -0.00292   0.00433  -0.17248  -0.16858
  80        5S          0.02135   3.72691   0.41078  -0.04692  -0.00735
  81        5PX        -0.00138  -0.60744   0.15063   0.00873  -0.00274
  82        5PY        -0.01145  -1.53092   0.10963   0.01513   0.01048
  83        5PZ         0.19986  -0.00256   0.00102   0.22942  -0.27942
  84        6D 0        0.00005   0.00524  -0.00192  -0.00003  -0.00001
  85        6D+1       -0.00893   0.00003  -0.00011   0.00500  -0.01045
  86        6D-1       -0.00434   0.00002  -0.00011   0.00483  -0.00407
  87        6D+2       -0.00012  -0.00536   0.00410   0.00021  -0.00027
  88        6D-2        0.00000  -0.00311   0.00476  -0.00012   0.00020
  89        7D 0        0.00001  -0.06754   0.00511  -0.00245   0.00231
  90        7D+1       -0.03028   0.00153  -0.00254   0.12686  -0.07763
  91        7D-1       -0.01077   0.00040  -0.00136   0.07567   0.03315
  92        7D+2        0.00044   0.02746   0.02295   0.00344  -0.00114
  93        7D-2       -0.00032   0.14755  -0.13445  -0.00489   0.00312
                          36        37        38        39        40
                           V         V         V         V         V
     Eigenvalues --     0.66725   0.74303   0.76093   0.79459   0.80868
   1 1   C  1S          0.06161  -0.01162   0.00100  -0.00028   0.00112
   2        2S          0.11994  -0.02362   0.00186  -0.00058   0.00134
   3        2PX         0.07112   0.01245   0.01412   0.00014   0.01247
   4        2PY        -0.00062  -0.00525   0.00920   0.00052  -0.00804
   5        2PZ        -0.00155  -0.00070  -0.00067  -0.03486  -0.00037
   6        3S         -0.80638   0.25444   0.02698   0.00689   0.09182
   7        3PX         0.15205   0.43004   0.24890  -0.00021   0.11529
   8        3PY         0.02183  -0.16542   0.22429  -0.00002  -0.01775
   9        3PZ        -0.00496  -0.00446  -0.00528  -0.05717  -0.00106
  10        4S          1.20215  -0.54046  -0.20945  -0.03031  -0.73585
  11        4PX        -0.98583   0.97898   0.33384  -0.00749  -0.10472
  12        4PY        -0.20195  -0.56441   0.41399  -0.00527  -0.01333
  13        4PZ         0.01224   0.00279  -0.01051   0.12172   0.00171
  14        5S          1.71440   0.00147   0.26041  -0.00986   0.65009
  15        5PX         0.30168  -0.00715   0.02363  -0.00332  -0.06397
  16        5PY         0.17049  -0.14960   0.30786  -0.00736   0.03001
  17        5PZ         0.00976   0.00374   0.00427   0.76393   0.00130
  18        6D 0        0.01038  -0.00414   0.00006  -0.00003  -0.00024
  19        6D+1       -0.00003   0.00000   0.00018   0.00439  -0.00003
  20        6D-1       -0.00002   0.00012   0.00001   0.00256  -0.00005
  21        6D+2       -0.00526   0.00406   0.00240   0.00002   0.00077
  22        6D-2       -0.00272  -0.00297   0.00322   0.00001  -0.00015
  23        7D 0        0.25256  -0.80588  -0.39513  -0.00046  -0.18118
  24        7D+1        0.00216   0.00334   0.01124  -0.36902   0.00144
  25        7D-1        0.01912   0.01881   0.00715  -0.00872   0.00757
  26        7D+2       -0.72622   0.00550  -0.17011  -0.00150  -0.05167
  27        7D-2       -0.16416  -0.30741   0.44997   0.00282   0.03475
  28 2   H  1S          0.05633   0.01937   0.02038  -0.01581   0.01655
  29        2S          0.27787   0.87923   0.54138   0.04386   0.41649
  30        3S         -1.13226  -0.13756  -0.30449   0.54041  -0.37849
  31        4PX        -0.01703   0.04764   0.00481   0.00151   0.02298
  32        4PY         0.02178  -0.01406  -0.02991  -0.00366   0.00472
  33        4PZ        -0.06697   0.05482   0.02878   0.02181   0.01394
  34 3   H  1S          0.05711   0.01974   0.02049   0.01544   0.01669
  35        2S          0.28299   0.88800   0.56874  -0.03606   0.41794
  36        3S         -1.16405  -0.15515  -0.30952  -0.53327  -0.38403
  37        4PX        -0.01680   0.04757   0.00770  -0.00097   0.02297
  38        4PY         0.02214  -0.01058  -0.02837   0.00282   0.00462
  39        4PZ         0.06782  -0.05635  -0.03051   0.02081  -0.01350
  40 4   N  1S         -0.00781   0.02238  -0.01091  -0.00003   0.00449
  41        2S         -0.01382   0.03461  -0.01572  -0.00004   0.00773
  42        2PX         0.01940  -0.11864  -0.00816   0.00044   0.08795
  43        2PY         0.02365   0.08370  -0.08290   0.00057   0.11775
  44        2PZ         0.00103   0.00095  -0.00044  -0.16499   0.00058
  45        3S          0.05182  -0.01098  -0.04677  -0.00007  -0.05169
  46        3PX         0.04164  -0.44946   0.01201   0.00165   0.29140
  47        3PY         0.02822   0.34926  -0.30829   0.00172   0.50465
  48        3PZ         0.00277   0.00289  -0.00115  -0.54527   0.00201
  49        4S          0.43794  -1.27337   0.81411   0.00270   0.23618
  50        4PX        -0.29302   1.67065  -0.37289  -0.00879  -0.61030
  51        4PY         0.18531  -1.48816   1.56047  -0.00307  -0.83943
  52        4PZ        -0.00365  -0.00516   0.00309   1.07508  -0.00283
  53        5S         -1.13048  -0.36313   0.73331   0.01473  -0.10397
  54        5PX         0.38976  -0.53095  -0.12284   0.00020   0.19409
  55        5PY        -0.22199   0.45481  -0.20335   0.00826   0.72639
  56        5PZ         0.00607   0.00229   0.00060  -0.71583   0.00269
  57        6D 0        0.00078  -0.02215   0.01207   0.00003  -0.00395
  58        6D+1        0.00011   0.00010   0.00001   0.00823   0.00004
  59        6D-1        0.00003   0.00010   0.00004   0.00160   0.00004
  60        6D+2        0.00493   0.00333   0.01301  -0.00010  -0.00900
  61        6D-2        0.01227  -0.01628   0.01119   0.00005  -0.00409
  62        7D 0       -0.08903  -0.09544  -0.15413   0.00046  -0.15456
  63        7D+1        0.00327   0.00220   0.00133   0.13480   0.00106
  64        7D-1        0.00117   0.00225   0.00391   0.12764   0.00242
  65        7D+2        0.08537   0.06281  -0.07392   0.00081  -0.19076
  66        7D-2        0.15294   0.11928   0.01881  -0.00052  -0.02609
  67 5   N  1S         -0.01137  -0.00295   0.02370  -0.00010   0.00479
  68        2S         -0.01864  -0.00368   0.03686  -0.00017   0.00805
  69        2PX         0.01760  -0.07085  -0.11341   0.00072   0.09055
  70        2PY         0.00223   0.03332  -0.11950   0.00093  -0.11543
  71        2PZ        -0.00145  -0.00095  -0.00145  -0.18044  -0.00016
  72        3S          0.03360  -0.03600  -0.01904   0.00037  -0.04390
  73        3PX         0.06200  -0.19771  -0.44435   0.00273   0.31354
  74        3PY         0.06175   0.10753  -0.49517   0.00357  -0.49941
  75        3PZ        -0.00305  -0.00216  -0.00424  -0.59626  -0.00013
  76        4S          0.66316   0.27284  -1.09949   0.00433   0.16988
  77        4PX        -0.45987   0.34972   1.36235  -0.00888  -0.61024
  78        4PY        -0.54384  -0.71770   2.07987  -0.01065   0.89953
  79        4PZ        -0.00052  -0.00079   0.00855   1.15189  -0.00178
  80        5S         -0.51565   0.56929  -0.81804   0.00310  -0.28349
  81        5PX         0.31238  -0.38106  -0.38958  -0.00071   0.22734
  82        5PY         0.05563  -0.03279  -0.49484   0.00620  -0.66774
  83        5PZ        -0.01107  -0.00289  -0.00467  -0.67461  -0.00132
  84        6D 0        0.00459   0.00303  -0.02306   0.00008  -0.00496
  85        6D+1       -0.00026  -0.00019  -0.00002   0.00712  -0.00010
  86        6D-1       -0.00015  -0.00013   0.00001  -0.00079  -0.00002
  87        6D+2        0.00768   0.01031  -0.00844   0.00001  -0.00997
  88        6D-2       -0.01250  -0.00085   0.01627  -0.00009   0.00320
  89        7D 0       -0.10841  -0.15555  -0.04849  -0.00050  -0.13871
  90        7D+1       -0.00396  -0.00080  -0.00022   0.16270  -0.00051
  91        7D-1       -0.00076  -0.00054  -0.00303  -0.10459  -0.00042
  92        7D+2        0.09240  -0.04615   0.13298  -0.00033  -0.19649
  93        7D-2       -0.11160  -0.03960  -0.06988  -0.00011  -0.00566
                          41        42        43        44        45
                           V         V         V         V         V
     Eigenvalues --     0.82229   0.83630   0.85662   0.86698   0.97754
   1 1   C  1S         -0.00058  -0.00210   0.06046   0.05252  -0.00920
   2        2S         -0.00129  -0.00436   0.12668   0.11053  -0.02074
   3        2PX         0.00038   0.00065  -0.01881  -0.01709  -0.01446
   4        2PY        -0.00018   0.00048  -0.00892  -0.01651  -0.03199
   5        2PZ         0.03665  -0.06458  -0.00113  -0.00163  -0.00103
   6        3S          0.01416   0.04779  -1.43430  -1.25716   0.28111
   7        3PX        -0.00076   0.00051  -0.04563  -0.08427   0.05052
   8        3PY         0.00017   0.00262  -0.05312   0.01988  -0.24645
   9        3PZ         0.13772  -0.49855  -0.00851  -0.01097  -0.00536
  10        4S         -0.05159  -0.18893   5.82485   4.96356  -1.12200
  11        4PX        -0.01261  -0.04018   1.04020   0.83452  -0.62160
  12        4PY        -0.00380   0.00277   0.02966   0.81525   1.29021
  13        4PZ         0.05249  -0.92486  -0.01187  -0.01511  -0.03551
  14        5S         -0.01924  -0.09299   2.74215   2.34512  -0.25588
  15        5PX        -0.00639  -0.02543   0.70475   0.67212  -0.05366
  16        5PY        -0.00111   0.00097   0.78887  -0.66598  -0.03928
  17        5PZ        -0.18236   0.07638   0.00884   0.00263   0.00068
  18        6D 0       -0.00002  -0.00043   0.01069   0.00935  -0.00242
  19        6D+1        0.00018   0.00781   0.00011   0.00019   0.00017
  20        6D-1        0.00527  -0.00258  -0.00027  -0.00028  -0.00003
  21        6D+2        0.00010  -0.00009  -0.00047  -0.00019   0.00214
  22        6D-2       -0.00009   0.00007   0.00282  -0.00270   0.00994
  23        7D 0       -0.00081  -0.00878   0.23227   0.20207   0.12144
  24        7D+1       -0.17899   0.87474   0.01165   0.01547   0.02539
  25        7D-1       -0.15243  -0.37509  -0.02535  -0.02447  -0.00360
  26        7D+2       -0.00354  -0.01467   0.38034   0.26701  -0.20439
  27        7D-2        0.00198  -0.00880  -0.20238   0.23955   1.24473
  28 2   H  1S          0.01193  -0.00261   0.01641   0.01315  -0.00803
  29        2S          0.29325  -1.29954  -0.86440  -0.78226   0.10079
  30        3S         -0.29289   0.27240  -0.91166  -0.74539  -0.04616
  31        4PX        -0.00920  -0.01595  -0.02935  -0.04798   0.04300
  32        4PY        -0.00644   0.04048   0.00106   0.03141  -0.05324
  33        4PZ         0.00547  -0.08447  -0.10459  -0.08347  -0.00527
  34 3   H  1S         -0.01127   0.00062   0.01670   0.01299  -0.00688
  35        2S         -0.28229   1.34220  -0.81912  -0.72505   0.15519
  36        3S          0.30124  -0.21267  -0.92705  -0.75836  -0.02948
  37        4PX         0.00748   0.01968  -0.02944  -0.04641   0.04090
  38        4PY         0.00608  -0.03797  -0.00318   0.02805  -0.05217
  39        4PZ         0.00429  -0.09166   0.10125   0.08037   0.00029
  40 4   N  1S         -0.00005  -0.00030   0.00633   0.00539  -0.02324
  41        2S         -0.00005  -0.00046   0.00953   0.00776  -0.04233
  42        2PX         0.00130   0.00035  -0.13223   0.05850  -0.09670
  43        2PY        -0.00053  -0.00177  -0.02586   0.10131   0.03227
  44        2PZ         0.17365   0.03564   0.00049   0.00094  -0.00130
  45        3S         -0.00065   0.00054   0.00528   0.02112   0.17244
  46        3PX         0.00442   0.00262  -0.50919   0.21135  -0.29304
  47        3PY        -0.00212  -0.00862  -0.04778   0.40722   0.14486
  48        3PZ         0.59185   0.22548   0.00402   0.00638  -0.00392
  49        4S          0.00763   0.01633  -0.51371  -0.43935   0.88970
  50        4PX        -0.01823  -0.02920   2.11096  -0.14283  -0.67520
  51        4PY         0.00838   0.02872   0.01191  -1.46994   0.07934
  52        4PZ        -1.25325  -0.70992  -0.01550  -0.02224   0.00641
  53        5S          0.01712   0.07616  -2.58571  -1.58497   2.05760
  54        5PX         0.00207  -0.02485  -0.47760   1.27106  -0.34589
  55        5PY         0.00065  -0.00560  -0.81660   0.75945   0.73188
  56        5PZ         0.85004   0.40588   0.01004   0.01512   0.00218
  57        6D 0        0.00011   0.00023  -0.00489  -0.00531   0.00816
  58        6D+1       -0.00299  -0.01279  -0.00041  -0.00042  -0.00028
  59        6D-1        0.00604   0.01467   0.00027   0.00042   0.00002
  60        6D+2       -0.00008  -0.00003   0.01757  -0.01269  -0.02064
  61        6D-2        0.00018   0.00041  -0.01935  -0.00543   0.00643
  62        7D 0       -0.00102   0.00068   0.07671   0.11366  -0.01627
  63        7D+1       -0.04711   0.02896  -0.00248  -0.00072  -0.00875
  64        7D-1       -0.03857   0.47538   0.00492   0.01125  -0.00774
  65        7D+2        0.00081   0.00358  -0.11155  -0.05104  -0.08075
  66        7D-2       -0.00022  -0.00106  -0.05876   0.00231  -0.12455
  67 5   N  1S         -0.00009  -0.00037   0.01006   0.00875   0.02060
  68        2S         -0.00016  -0.00058   0.01627   0.01476   0.03768
  69        2PX        -0.00011   0.00342   0.06232  -0.12212   0.07348
  70        2PY         0.00062   0.00131  -0.08346   0.04190   0.05042
  71        2PZ        -0.15667  -0.02749  -0.00211  -0.00070  -0.00101
  72        3S          0.00043   0.00096  -0.02879  -0.05062  -0.17345
  73        3PX        -0.00013   0.01338   0.19601  -0.50646   0.20863
  74        3PY         0.00253   0.00729  -0.34848   0.10943   0.16944
  75        3PZ        -0.58422  -0.04145  -0.00787  -0.00221  -0.00388
  76        4S          0.00388   0.01446  -0.43503  -0.31045  -0.33549
  77        4PX        -0.00626  -0.05409   0.04654   2.05389   0.23854
  78        4PY        -0.00842  -0.02793   1.25851  -0.24667  -0.04561
  79        4PZ         1.32644   0.06111   0.02147   0.00809   0.00994
  80        5S          0.01903   0.06940  -1.60998  -2.02857  -1.45037
  81        5PX        -0.00781   0.00388   1.23987  -0.71630   0.09084
  82        5PY         0.00037  -0.00295  -0.61726   0.75100   0.62665
  83        5PZ        -0.80932  -0.03527  -0.01567  -0.00635  -0.00222
  84        6D 0        0.00010   0.00026  -0.00662  -0.00328  -0.00965
  85        6D+1        0.00521  -0.00041   0.00024   0.00027  -0.00007
  86        6D-1        0.01273  -0.00727   0.00011  -0.00008   0.00004
  87        6D+2       -0.00001  -0.00015  -0.00675   0.01839   0.01375
  88        6D-2       -0.00009  -0.00067   0.00537   0.02167   0.00530
  89        7D 0        0.00069  -0.00290   0.06138   0.04196  -0.18598
  90        7D+1        0.00032   0.18998   0.00403   0.00677  -0.00430
  91        7D-1        0.20891  -0.43171  -0.00348  -0.01032   0.00802
  92        7D+2        0.00036   0.00215  -0.03083  -0.08098   0.16680
  93        7D-2        0.00092  -0.00124  -0.04527   0.05981  -0.19814
                          46        47        48        49        50
                           V         V         V         V         V
     Eigenvalues --     1.03237   1.07322   1.13338   1.15327   1.18506
   1 1   C  1S          0.00135   0.02609   0.00097   0.00785  -0.00048
   2        2S          0.00301   0.05907   0.00081   0.02082  -0.00130
   3        2PX         0.00029   0.00913  -0.00716  -0.05020  -0.00024
   4        2PY        -0.00169  -0.01674   0.01490   0.00054   0.00026
   5        2PZ         0.05789  -0.00280   0.00088   0.00128  -0.01533
   6        3S         -0.02132  -0.39842  -0.00002  -0.33579   0.02365
   7        3PX         0.00286   0.07662  -0.03979  -0.15050   0.00530
   8        3PY        -0.01586  -0.10318   0.10121   0.00599  -0.00429
   9        3PZ         0.57387  -0.02825  -0.00331   0.01010   0.35644
  10        4S         -0.01409  -0.66724  -0.06644   1.05751  -0.09606
  11        4PX         0.04291   1.08392   0.04384   0.45530  -0.04485
  12        4PY        -0.00740  -0.00769  -0.39532   0.05951  -0.00945
  13        4PZ         2.32006  -0.11458  -0.00150   0.04449   0.40301
  14        5S         -0.04134  -2.01622  -0.72312  -3.30824   0.02072
  15        5PX        -0.03185  -1.13008  -0.25395  -1.21725   0.00972
  16        5PY         0.01147   0.08855  -0.52415  -0.02592  -0.00047
  17        5PZ        -0.32972   0.01513  -0.00321  -0.00777  -0.17892
  18        6D 0       -0.00037  -0.01475   0.00120   0.00653  -0.00021
  19        6D+1       -0.01429   0.00073   0.00017  -0.00026  -0.00133
  20        6D-1        0.00747  -0.00019  -0.00012   0.00026   0.00890
  21        6D+2       -0.00001  -0.00410   0.00265   0.00957  -0.00016
  22        6D-2        0.00022   0.00107   0.00194   0.00255  -0.00017
  23        7D 0       -0.03742  -1.06568   0.00143   0.13818   0.00528
  24        7D+1       -1.46022   0.07529   0.00388  -0.02890  -0.82973
  25        7D-1        0.38565   0.00202  -0.00213   0.00426   0.32780
  26        7D+2       -0.00718  -0.30499  -0.00853   0.37682  -0.02036
  27        7D-2        0.05464   0.31089  -0.06714  -0.19025   0.01484
  28 2   H  1S         -0.00621  -0.02937   0.00505  -0.01162  -0.03013
  29        2S          2.29160   1.11447  -0.03220  -0.52171   0.96098
  30        3S         -0.06607  -0.27725   0.01864   0.19652  -0.26313
  31        4PX         0.09098   0.01430  -0.01894   0.07520   0.24745
  32        4PY         0.02861   0.04569   0.00042  -0.02318  -0.17918
  33        4PZ         0.09440   0.02737  -0.00857  -0.04091  -0.07955
  34 3   H  1S          0.00450  -0.03094   0.00376  -0.01010   0.03010
  35        2S         -2.18644   1.33359  -0.02371  -0.60760  -0.91852
  36        3S          0.03389  -0.28064   0.02326   0.20244   0.25216
  37        4PX        -0.08901   0.02358  -0.01206   0.07143  -0.24915
  38        4PY        -0.02853   0.04157  -0.00218  -0.01184   0.18421
  39        4PZ         0.09155  -0.03359   0.00870   0.04073  -0.07905
  40 4   N  1S         -0.00188  -0.04978   0.05009  -0.06412   0.00092
  41        2S         -0.00367  -0.09917   0.10239  -0.13318   0.00203
  42        2PX        -0.00135   0.02761   0.00298   0.01326  -0.00059
  43        2PY         0.00001   0.02307   0.00237  -0.04888   0.00255
  44        2PZ         0.07040  -0.00274   0.00041   0.00060  -0.01764
  45        3S          0.02480   0.75714  -0.82599   1.15331  -0.02198
  46        3PX        -0.00573   0.07731   0.01162   0.07170  -0.00526
  47        3PY        -0.00330  -0.02953   0.00286  -0.13700   0.00638
  48        3PZ         0.21911  -0.00973   0.00070   0.00253  -0.01076
  49        4S         -0.03632  -1.66945   1.40928  -2.77108   0.08222
  50        4PX         0.00422   0.13805   0.02987   0.26900  -0.01902
  51        4PY         0.02407   0.23450   0.07924  -0.03248   0.01400
  52        4PZ        -0.35467   0.01908  -0.00213  -0.00469   0.16645
  53        5S          0.11880   2.70944  -4.68203   3.50960  -0.05843
  54        5PX        -0.02218  -0.51665   0.42274  -0.65913   0.00335
  55        5PY         0.01926   0.27414  -1.58783   0.45887  -0.01534
  56        5PZ         0.02631  -0.00213  -0.00270   0.00205   0.06488
  57        6D 0        0.00046   0.00571   0.00998  -0.01216   0.00059
  58        6D+1        0.01763  -0.00064   0.00008   0.00002  -0.00684
  59        6D-1       -0.00135  -0.00006  -0.00006   0.00000  -0.00017
  60        6D+2        0.00018   0.01515   0.00446  -0.00256   0.00045
  61        6D-2       -0.00038  -0.00966   0.00028  -0.00643   0.00028
  62        7D 0        0.01005   0.17121   0.43491  -0.54862   0.01129
  63        7D+1        0.36630  -0.00916   0.00707  -0.01236  -0.87714
  64        7D-1        0.35934  -0.01774  -0.00230   0.00547   0.09934
  65        7D+2        0.00170   0.07773   0.00100  -0.06742   0.01190
  66        7D-2       -0.01424  -0.31864  -0.07460   0.02660  -0.00105
  67 5   N  1S         -0.00033  -0.03240  -0.07779  -0.04736  -0.00081
  68        2S         -0.00078  -0.06578  -0.15854  -0.09778  -0.00151
  69        2PX         0.00423   0.06738   0.00167  -0.01411   0.00005
  70        2PY         0.00016  -0.01999   0.00149   0.04243  -0.00305
  71        2PZ         0.03757  -0.00210   0.00036   0.00114  -0.00900
  72        3S          0.01126   0.55732   1.27105   0.82351   0.00858
  73        3PX         0.01445   0.20991  -0.00855  -0.02932  -0.00026
  74        3PY         0.00345   0.02841   0.00592   0.11166  -0.00815
  75        3PZ         0.17852  -0.00801   0.00076   0.00329  -0.00390
  76        4S         -0.06218  -1.60550  -2.27707  -1.87257   0.01202
  77        4PX         0.00866   0.11393  -0.01516   0.21037  -0.01420
  78        4PY         0.02191   0.14296   0.02999  -0.09136   0.00533
  79        4PZ        -0.48672   0.01958  -0.00157  -0.00795   0.01449
  80        5S         -0.02344   1.22049   5.92093   1.90210   0.03525
  81        5PX         0.00346  -0.26239  -0.55706  -0.49956  -0.00213
  82        5PY         0.01538   0.01333  -1.79166  -0.03433  -0.01845
  83        5PZ         0.20968  -0.00740  -0.00331   0.00152   0.03913
  84        6D 0       -0.00025   0.00201  -0.00973  -0.00577   0.00028
  85        6D+1       -0.00076  -0.00025   0.00004   0.00038   0.00450
  86        6D-1       -0.00210   0.00001   0.00008   0.00001  -0.00416
  87        6D+2        0.00060   0.01565  -0.00265  -0.00625   0.00030
  88        6D-2        0.00086   0.01644   0.00222   0.00295  -0.00001
  89        7D 0        0.01102   0.26976  -0.56121  -0.40464   0.00719
  90        7D+1       -0.09243  -0.00104   0.00130   0.01608   0.10989
  91        7D-1       -0.32795   0.01518   0.00307  -0.00391  -0.23718
  92        7D+2        0.00024   0.01872   0.01841  -0.05587  -0.00110
  93        7D-2        0.01105   0.34574   0.03727  -0.01283   0.01351
[...]
  70        2PY         0.00000   0.00018   0.00000   0.00000   0.00075
  71        2PZ         0.00000   0.00000   0.00000   0.00020   0.00000
  72        3S          0.00000   0.00020   0.00000   0.00000   0.00120
  73        3PX         0.00002   0.00002   0.00000   0.00000   0.00004
  74        3PY         0.00000   0.00085   0.00000   0.00000   0.00365
  75        3PZ         0.00000   0.00000   0.00002   0.00153   0.00000
  76        4S          0.00000   0.00003   0.00000   0.00000   0.00098
  77        4PX         0.00006   0.00001   0.00000   0.00000   0.00003
  78        4PY         0.00000   0.00032   0.00000   0.00000   0.00178
  79        4PZ         0.00000   0.00000   0.00004   0.00283   0.00000
  80        5S          0.00000   0.00000   0.00000   0.00000  -0.00019
  81        5PX         0.00000   0.00000   0.00000   0.00000   0.00001
  82        5PY         0.00000   0.00000   0.00000   0.00000  -0.00001
  83        5PZ         0.00000   0.00000   0.00000   0.00018   0.00000
  84        6D 0        0.00000   0.00000   0.00000   0.00000   0.00000
  85        6D+1        0.00000   0.00000   0.00000   0.00000   0.00000
  86        6D-1        0.00000   0.00000   0.00000   0.00001   0.00000
  87        6D+2        0.00000   0.00001   0.00000   0.00000   0.00001
  88        6D-2        0.00000   0.00000   0.00000   0.00000   0.00000
  89        7D 0        0.00000   0.00003   0.00000   0.00000   0.00005
  90        7D+1        0.00000   0.00000   0.00002   0.00000   0.00000
  91        7D-1        0.00000   0.00000   0.00001   0.00034   0.00000
  92        7D+2        0.00000   0.00005   0.00000   0.00000   0.00020
  93        7D-2        0.00001   0.00000   0.00000   0.00000   0.00000
                          66        67        68        69        70
  66        7D-2        0.00118
  67 5   N  1S          0.00000   0.65571
  68        2S          0.00000   0.51191   0.52052
  69        2PX         0.00010   0.00000   0.00000   0.10990
  70        2PY         0.00004   0.00000   0.00000   0.00000   0.08018
  71        2PZ         0.00000   0.00000   0.00000   0.00000   0.00000
  72        3S         -0.00006  -0.04853  -0.09733   0.00000   0.00000
  73        3PX         0.00071   0.00000   0.00000   0.10273   0.00000
  74        3PY         0.00019   0.00000   0.00000   0.00000   0.07544
  75        3PZ         0.00000   0.00000   0.00000   0.00000   0.00000
  76        4S         -0.00010  -0.02436  -0.04238   0.00000   0.00000
  77        4PX         0.00100   0.00000   0.00000   0.02816   0.00000
  78        4PY         0.00010   0.00000   0.00000   0.00000   0.02043
  79        4PZ         0.00000   0.00000   0.00000   0.00000   0.00000
  80        5S          0.00000   0.00188   0.00266   0.00000   0.00000
  81        5PX         0.00000   0.00000   0.00000   0.00044   0.00000
  82        5PY         0.00000   0.00000   0.00000   0.00000   0.00034
  83        5PZ         0.00000   0.00000   0.00000   0.00000   0.00000
  84        6D 0        0.00000   0.00000   0.00000   0.00000   0.00000
  85        6D+1        0.00000   0.00000   0.00000   0.00000   0.00000
  86        6D-1        0.00000   0.00000   0.00000   0.00000   0.00000
  87        6D+2        0.00000   0.00000   0.00000   0.00000   0.00000
  88        6D-2        0.00001   0.00000   0.00000   0.00000   0.00000
  89        7D 0        0.00000   0.00000   0.00000   0.00000   0.00000
  90        7D+1        0.00000   0.00000   0.00000   0.00000   0.00000
  91        7D-1        0.00000   0.00000   0.00000   0.00000   0.00000
  92        7D+2        0.00001   0.00000   0.00000   0.00000   0.00000
  93        7D-2        0.00028   0.00000   0.00000   0.00000   0.00000
                          71        72        73        74        75
  71        2PZ         0.07400
  72        3S          0.00000   0.72532
  73        3PX         0.00000   0.00000   0.24986
  74        3PY         0.00000   0.00000   0.00000   0.18471
  75        3PZ         0.06924   0.00000   0.00000   0.00000   0.16855
  76        4S          0.00000   0.50077   0.00000   0.00000   0.00000
  77        4PX         0.00000   0.00000   0.13008   0.00000   0.00000
  78        4PY         0.00000   0.00000   0.00000   0.09499   0.00000
  79        4PZ         0.02163   0.00000   0.00000   0.00000   0.09997
  80        5S          0.00000  -0.02867   0.00000   0.00000   0.00000
  81        5PX         0.00000   0.00000   0.00266   0.00000   0.00000
  82        5PY         0.00000   0.00000   0.00000   0.00201   0.00000
  83        5PZ         0.00091   0.00000   0.00000   0.00000   0.00551
  84        6D 0        0.00000   0.00000   0.00000   0.00000   0.00000
  85        6D+1        0.00000   0.00000   0.00000   0.00000   0.00000
  86        6D-1        0.00000   0.00000   0.00000   0.00000   0.00000
  87        6D+2        0.00000   0.00000   0.00000   0.00000   0.00000
  88        6D-2        0.00000   0.00000   0.00000   0.00000   0.00000
  89        7D 0        0.00000   0.00000   0.00000   0.00000   0.00000
  90        7D+1        0.00000   0.00000   0.00000   0.00000   0.00000
  91        7D-1        0.00000   0.00000   0.00000   0.00000   0.00000
  92        7D+2        0.00000   0.00000   0.00000   0.00000   0.00000
  93        7D-2        0.00000   0.00000   0.00000   0.00000   0.00000
                          76        77        78        79        80
  76        4S          0.59920
  77        4PX         0.00000   0.16500
  78        4PY         0.00000   0.00000   0.12066
  79        4PZ         0.00000   0.00000   0.00000   0.14383
  80        5S         -0.04285   0.00000   0.00000   0.00000   0.02419
  81        5PX         0.00000   0.00632   0.00000   0.00000   0.00000
  82        5PY         0.00000   0.00000   0.00417   0.00000   0.00000
  83        5PZ         0.00000   0.00000   0.00000   0.01493   0.00000
  84        6D 0        0.00000   0.00000   0.00000   0.00000   0.00000
  85        6D+1        0.00000   0.00000   0.00000   0.00000   0.00000
  86        6D-1        0.00000   0.00000   0.00000   0.00000   0.00000
  87        6D+2        0.00000   0.00000   0.00000   0.00000   0.00000
  88        6D-2        0.00000   0.00000   0.00000   0.00000   0.00000
  89        7D 0        0.00000   0.00000   0.00000   0.00000   0.00000
  90        7D+1        0.00000   0.00000   0.00000   0.00000   0.00000
  91        7D-1        0.00000   0.00000   0.00000   0.00000   0.00000
  92        7D+2        0.00000   0.00000   0.00000   0.00000   0.00000
  93        7D-2        0.00000   0.00000   0.00000   0.00000   0.00000
                          81        82        83        84        85
  81        5PX         0.00169
  82        5PY         0.00000   0.00252
  83        5PZ         0.00000   0.00000   0.00370
  84        6D 0        0.00000   0.00000   0.00000   0.00004
  85        6D+1        0.00000   0.00000   0.00000   0.00000   0.00001
  86        6D-1        0.00000   0.00000   0.00000   0.00000   0.00000
  87        6D+2        0.00000   0.00000   0.00000   0.00000   0.00000
  88        6D-2        0.00000   0.00000   0.00000   0.00000   0.00000
  89        7D 0        0.00000   0.00000   0.00000   0.00007   0.00000
  90        7D+1        0.00000   0.00000   0.00000   0.00000   0.00002
  91        7D-1        0.00000   0.00000   0.00000   0.00000   0.00000
  92        7D+2        0.00000   0.00000   0.00000   0.00000   0.00000
  93        7D-2        0.00000   0.00000   0.00000   0.00000   0.00000
                          86        87        88        89        90
  86        6D-1        0.00003
  87        6D+2        0.00000   0.00010
  88        6D-2        0.00000   0.00000   0.00008
  89        7D 0        0.00000   0.00000   0.00000   0.00067
  90        7D+1        0.00000   0.00000   0.00000   0.00000   0.00023
  91        7D-1        0.00008   0.00000   0.00000   0.00000   0.00000
  92        7D+2        0.00000   0.00018   0.00000   0.00000   0.00000
  93        7D-2        0.00000   0.00000   0.00014   0.00000   0.00000
                          91        92        93
  91        7D-1        0.00112
  92        7D+2        0.00000   0.00174
  93        7D-2        0.00000   0.00000   0.00121
     Gross orbital populations:
                           1
   1 1   C  1S          1.10420
   2        2S          0.88534
   3        2PX         0.16769
   4        2PY         0.15859
   5        2PZ         0.24559
   6        3S          0.76947
   7        3PX         0.42702
   8        3PY         0.40056
   9        3PZ         0.52657
  10        4S          0.50564
  11        4PX         0.20097
  12        4PY         0.26835
  13        4PZ         0.26596
  14        5S          0.08856
  15        5PX         0.02169
  16        5PY         0.01983
  17        5PZ         0.01946
  18        6D 0        0.00273
  19        6D+1        0.00491
  20        6D-1        0.00033
  21        6D+2        0.00144
  22        6D-2        0.00268
  23        7D 0        0.01396
  24        7D+1        0.03386
  25        7D-1        0.00015
  26        7D+2        0.01627
  27        7D-2        0.01677
  28 2   H  1S          0.27665
  29        2S          0.51061
  30        3S          0.02935
  31        4PX         0.00754
  32        4PY         0.00576
  33        4PZ         0.01456
  34 3   H  1S          0.27674
  35        2S          0.51079
  36        3S          0.02933
  37        4PX         0.00758
  38        4PY         0.00561
  39        4PZ         0.01466
  40 4   N  1S          1.09647
  41        2S          0.89522
  42        2PX         0.23216
  43        2PY         0.19220
  44        2PZ         0.18817
  45        3S          1.04421
  46        3PX         0.52978
  47        3PY         0.44402
  48        3PZ         0.40865
  49        4S          0.92466
  50        4PX         0.38936
  51        4PY         0.33018
  52        4PZ         0.37761
  53        5S         -0.07310
  54        5PX        -0.00516
  55        5PY         0.02189
  56        5PZ         0.02766
  57        6D 0        0.00033
  58        6D+1        0.00011
  59        6D-1        0.00022
  60        6D+2        0.00088
  61        6D-2        0.00063
  62        7D 0        0.00532
  63        7D+1        0.00248
  64        7D-1        0.00680
  65        7D+2        0.01699
  66        7D-2        0.00999
  67 5   N  1S          1.09647
  68        2S          0.89523
  69        2PX         0.25390
  70        2PY         0.18876
  71        2PZ         0.16970
  72        3S          1.04701
  73        3PX         0.56414
  74        3PY         0.43827
  75        3PZ         0.37034
  76        4S          0.92891
  77        4PX         0.42781
  78        4PY         0.32124
  79        4PZ         0.34986
  80        5S         -0.07072
  81        5PX         0.00362
  82        5PY         0.02172
  83        5PZ         0.02851
  84        6D 0        0.00029
  85        6D+1        0.00006
  86        6D-1        0.00023
  87        6D+2        0.00068
  88        6D-2        0.00060
  89        7D 0        0.00488
  90        7D+1        0.00243
  91        7D-1        0.00742
  92        7D+2        0.01325
  93        7D-2        0.00990
          Condensed to atoms (all electrons):
               1          2          3          4          5
     1  C    4.993892   0.402944   0.402812   0.184063   0.184902
     2  H    0.402944   0.529071  -0.041249  -0.019232  -0.027079
     3  H    0.402812  -0.041249   0.529115  -0.020286  -0.025684
     4  N    0.184063  -0.019232  -0.020286   6.642660   0.280521
     5  N    0.184902  -0.027079  -0.025684   0.280521   6.661840
 Mulliken charges:
               1
     1  C   -0.168613
     2  H    0.155545
     3  H    0.155293
     4  N   -0.067726
     5  N   -0.074500
 Sum of Mulliken charges =   0.00000
 Mulliken charges with hydrogens summed into heavy atoms:
               1
     1  C    0.142225
     4  N   -0.067726
     5  N   -0.074500
 Electronic spatial extent (au):  <R**2>=            133.3797
 Charge=              0.0000 electrons
 Dipole moment (field-independent basis, Debye):
    X=             -2.5291    Y=              0.0817    Z=              0.0009  Tot=              2.5304
 Quadrupole moment (field-independent basis, Debye-Ang):
   XX=            -17.6619   YY=            -19.8077   ZZ=            -17.1260
   XY=             -0.2149   XZ=             -0.0059   YZ=             -0.0314
 Traceless Quadrupole moment (field-independent basis, Debye-Ang):
   XX=              0.5366   YY=             -1.6091   ZZ=              1.0725
   XY=             -0.2149   XZ=             -0.0059   YZ=             -0.0314
 Octapole moment (field-independent basis, Debye-Ang**2):
  XXX=             -4.6316  YYY=              0.1007  ZZZ=              0.0111  XYY=             -0.8872
  XXY=              0.3896  XXZ=              0.0104  XZZ=             -2.3938  YZZ=              0.4206
  YYZ=             -0.0081  XYZ=              0.0317
 Hexadecapole moment (field-independent basis, Debye-Ang**3):
 XXXX=            -80.0656 YYYY=            -75.4803 ZZZZ=            -23.4667 XXXY=             -1.0872
 XXXZ=             -0.0273 YYYX=             -0.2771 YYYZ=             -0.0283 ZZZX=             -0.0214
 ZZZY=             -0.0547 XXYY=            -27.3694 XXZZ=            -15.4010 YYZZ=            -16.4537
 XXYZ=             -0.0684 YYXZ=              0.0067 ZZXY=             -0.4556
 N-N= 5.314296663067D+01 E-N=-4.524571039940D+02  KE= 1.470385833147D+02
 Orbital energies and kinetic energies (alpha):
                                 1                 2
   1         O               -14.484685         22.082544
   2         O               -14.482268         22.082279
   3         O               -10.304375         15.976917
   4         O                -0.918676          1.766566
   5         O                -0.700022          2.397592
   6         O                -0.674493          1.587713
   7         O                -0.496113          1.034458
   8         O                -0.422533          1.623380
   9         O                -0.355823          1.705699
  10         O                -0.330982          1.651714
  11         O                -0.305613          1.610431
  12         V                -0.169097          1.906945
  13         V                -0.044014          2.221347
  14         V                -0.022944          1.530627
  15         V                 0.013785          0.560616
  16         V                 0.035824          0.559565
  17         V                 0.051255          0.243074
  18         V                 0.087100          0.774672
  19         V                 0.105077          0.945357
  20         V                 0.130211          0.893576
  21         V                 0.138138          0.456422
  22         V                 0.151295          0.505918
  23         V                 0.157738          0.720253
  24         V                 0.159243          0.452272
  25         V                 0.199122          0.601560
  26         V                 0.207007          0.707526
  27         V                 0.220930          0.474302
  28         V                 0.258573          0.646416
  29         V                 0.276413          0.552903
  30         V                 0.393070          1.089604
  31         V                 0.429296          1.052581
  32         V                 0.544725          1.450075
  33         V                 0.559977          1.492572
  34         V                 0.587455          1.326487
  35         V                 0.627804          1.619464
  36         V                 0.667251          1.621669
  37         V                 0.743030          1.598712
  38         V                 0.760931          1.693766
  39         V                 0.794593          2.022017
  40         V                 0.808678          1.851199
  41         V                 0.822285          1.970730
  42         V                 0.836303          1.488064
  43         V                 0.856622          1.955935
  44         V                 0.866984          1.909063
  45         V                 0.977538          1.970753
  46         V                 1.032368          1.707992
  47         V                 1.073222          2.236899
  48         V                 1.133378          2.736049
  49         V                 1.153266          2.552085
  50         V                 1.185059          1.841006
  51         V                 1.210686          1.931939
  52         V                 1.232395          2.687807
  53         V                 1.282550          2.250893
  54         V                 1.338120          2.224116
  55         V                 1.422019          2.142166
  56         V                 1.597369          3.255093
  57         V                 1.684169          2.655551
  58         V                 1.721664          2.841083
  59         V                 1.828447          2.680441
  60         V                 1.968497          3.101781
  61         V                 2.018225          2.676621
  62         V                 2.141370          3.438688
  63         V                 2.275272          3.950269
  64         V                 2.339974          3.812958
  65         V                 2.625127          3.930554
  66         V                 2.763185          4.246474
  67         V                 2.938306          6.468570
  68         V                 3.087937          6.011951
  69         V                 3.143452          6.672504
  70         V                 3.254081          4.966232
  71         V                 3.367941          5.389998
  72         V                 3.436382          5.555138
  73         V                 3.698427          8.475946
  74         V                 3.747548          5.887612
  75         V                 3.765814          8.843939
  76         V                 3.779479          8.866395
  77         V                 3.903979          8.867450
  78         V                 4.096328          8.964612
  79         V                 4.139665          6.214564
  80         V                 4.381233          8.962354
  81         V                 4.696349          7.170538
  82         V                 4.735413          7.204779
  83         V                 4.815813          7.269662
  84         V                 4.816738          7.260519
  85         V                 4.911695          7.350531
  86         V                 4.925457          7.363588
  87         V                 5.030751          7.507619
  88         V                 5.074853          7.545640
  89         V                 5.148493          7.644541
  90         V                 5.169340          7.677035
  91         V                23.865320         60.334237
  92         V                35.373536         89.007793
  93         V                35.388036         88.980248
 Total kinetic energy from orbitals= 1.470385833147D+02
 1|1|UNPC-DESKTOP-KC5UJLK|SP|RAPFD|6-311+G(2d,p)|C1H2N2|23122|05-Feb-20
 22|0||# apfd/6-311+g(2d,p) geom=connectivity pop=full int=ultrafine||E
 nergy Calculation(GC)||0,1|C,0,0.00072835,-0.87641806,0.08574928|H,0,0
 .92507333,-1.38707926,-0.08662099|H,0,-0.92698777,-1.38885814,-0.06138
 318|N,0,0.00165178,0.61043509,0.86474369|N,0,-0.00200259,0.53734288,-0
 .91709962||Version=IA32W-G09RevD.01|State=1-A|HF=-148.4498202|RMSD=5.1
 40e-009|Dipole=-0.0003354,-0.9950153,-0.0321569|Quadrupole=0.7973797,0
 .3989792,-1.196359,0.0043832,-0.0233308,0.1597629|PG=C01 [X(C1H2N2)]||
 @


 THE MEEK SHALL INHERIT THE EARTH.
 (THE REST OF US WILL ESCAPE TO THE STARS)
 Job cpu time:       0 days  0 hours  0 minutes 17.0 seconds.
 File lengths (MBytes):  RWF=      5 Int=      0 D2E=      0 Chk=      1 Scr=      1
 Normal termination of Gaussian 09 at Sat Feb 05 08:41:49 2022.
