 Entering Link 1 = C:\G09W\l1.exe PID=      4004.
  
 Copyright (c) 1988,1990,1992,1993,1995,1998,2003,2009,2013,
            Gaussian, Inc.  All Rights Reserved.
  
 This is part of the Gaussian(R) 09 program.  It is based on
 the Gaussian(R) 03 system (copyright 2003, Gaussian, Inc.),
 the Gaussian(R) 98 system (copyright 1998, Gaussian, Inc.),
 the Gaussian(R) 94 system (copyright 1995, Gaussian, Inc.),
 the Gaussian 92(TM) system (copyright 1992, Gaussian, Inc.),
 the Gaussian 90(TM) system (copyright 1990, Gaussian, Inc.),
 the Gaussian 88(TM) system (copyright 1988, Gaussian, Inc.),
 the Gaussian 86(TM) system (copyright 1986, Carnegie Mellon
 University), and the Gaussian 82(TM) system (copyright 1983,
 Carnegie Mellon University). Gaussian is a federally registered
 trademark of Gaussian, Inc.
  
 This software contains proprietary and confidential information,
 including trade secrets, belonging to Gaussian, Inc.
  
 This software is provided under written license and may be
 used, copied, transmitted, or stored only in accord with that
 written license.
  
 The following legend is applicable only to US Government
 contracts under FAR:
  
                    RESTRICTED RIGHTS LEGEND
  
 Use, reproduction and disclosure by the US Government is
 subject to restrictions as set forth in subparagraphs (a)
 and (c) of the Commercial Computer Software - Restricted
 Rights clause in FAR 52.227-19.
  
 Gaussian, Inc.
 340 Quinnipiac St., Bldg. 40, Wallingford CT 06492
  
  
 ---------------------------------------------------------------
 Warning -- This program may not be used in any manner that
 competes with the business of Gaussian, Inc. or will provide
 assistance to any competitor of Gaussian, Inc.  The licensee
 of this program is prohibited from giving any competitor of
 Gaussian, Inc. access to this program.  By using this program,
 the user acknowledges that Gaussian, Inc. is engaged in the
 business of creating and licensing software in the field of
 computational chemistry and represents and warrants to the
 licensee that it is not a competitor of Gaussian, Inc. and that
 it will not use this program in any manner prohibited above.
 ---------------------------------------------------------------
  

 Cite this work as:
 Gaussian 09, Revision D.01,
 M. J. Frisch, G. W. Trucks, H. B. Schlegel, G. E. Scuseria, 
 M. A. Robb, J. R. Cheeseman, G. Scalmani, V. Barone, B. Mennucci, 
 G. A. Petersson, H. Nakatsuji, M. Caricato, X. Li, H. P. Hratchian, 
 A. F. Izmaylov, J. Bloino, G. Zheng, J. L. Sonnenberg, M. Hada, 
 M. Ehara, K. Toyota, R. Fukuda, J. Hasegawa, M. Ishida, T. Nakajima, 
 Y. Honda, O. Kitao, H. Nakai, T. Vreven, J. A. Montgomery, Jr., 
 J. E. Peralta, F. Ogliaro, M. Bearpark, J. J. Heyd, E. Brothers, 
 K. N. Kudin, V. N. Staroverov, T. Keith, R. Kobayashi, J. Normand, 
 K. Raghavachari, A. Rendell, J. C. Burant, S. S. Iyengar, J. Tomasi, 
 M. Cossi, N. Rega, J. M. Millam, M. Klene, J. E. Knox, J. B. Cross, 
 V. Bakken, C. Adamo, J. Jaramillo, R. Gomperts, R. E. Stratmann, 
 O. Yazyev, A. J. Austin, R. Cammi, C. Pomelli, J. W. Ochterski, 
 R. L. Martin, K. Morokuma, V. G. Zakrzewski, G. A. Voth, 
 P. Salvador, J. J. Dannenberg, S. Dapprich, A. D. Daniels, 
 O. Farkas, J. B. Foresman, J. V. Ortiz, J. Cioslowski, 
 and D. J. Fox, Gaussian, Inc., Wallingford CT, 2013.
 
 ******************************************
 Gaussian 09:  IA32W-G09RevD.01 24-Apr-2013
                05-Feb-2022 
 ******************************************
 %chk=D:\mindmap\gaussian\calculate\ch3n2_gongzhen\energy.chk
 %nprocshared=4
 Will use up to    4 processors via shared memory.
 %mem=1GB
 -------------------------------------------------------------
 # apfd/6-311+g(2d,p) geom=connectivity pop=full int=ultrafine
 -------------------------------------------------------------
 1/38=1,57=2/1;
 2/12=2,17=6,18=5,40=1/2;
 3/5=4,6=6,7=112,11=2,16=1,25=1,30=1,74=-44,75=-5/1,2,3;
 4//1;
 5/5=2,38=5/2;
 6/7=3,28=1/1;
 99/5=1,9=1/99;
 ----------------------
 Energy Calculation(GC)
 ----------------------
 Symbolic Z-matrix:
 Charge =  0 Multiplicity = 1
 N                     0.12658  -0.00679   0. 
 N                     1.34151   0.00731   0. 
 C                    -1.152    -0.02162   0. 
 H                    -1.68233   0.06303  -0.92553 
 H                    -1.68233   0.06303   0.92553 
 
                          Input orientation:                          
 ---------------------------------------------------------------------
 Center     Atomic      Atomic             Coordinates (Angstroms)
 Number     Number       Type             X           Y           Z
 ---------------------------------------------------------------------
      1          7           0        0.126581   -0.006788    0.000000
      2          7           0        1.341511    0.007311    0.000000
      3          6           0       -1.151997   -0.021619    0.000000
      4          1           0       -1.682332    0.063027   -0.925526
      5          1           0       -1.682332    0.063027    0.925526
 ---------------------------------------------------------------------
                    Distance matrix (angstroms):
                    1          2          3          4          5
     1  N    0.000000
     2  N    1.215013   0.000000
     3  C    1.278663   2.493676   0.000000
     4  H    2.033134   3.162804   1.070055   0.000000
     5  H    2.033134   3.162804   1.070055   1.851052   0.000000
 Stoichiometry    CH2N2
 Framework group  CS[SG(CN2),X(H2)]
 Deg. of freedom     6
 Full point group                 CS      NOp   2
 Largest Abelian subgroup         CS      NOp   2
 Largest concise Abelian subgroup CS      NOp   2
                         Standard orientation:                         
 ---------------------------------------------------------------------
 Center     Atomic      Atomic             Coordinates (Angstroms)
 Number     Number       Type             X           Y           Z
 ---------------------------------------------------------------------
      1          7           0        0.000000    0.126762    0.000000
      2          7           0        0.079134    1.339195    0.000000
      3          6           0       -0.083274   -1.149186    0.000000
      4          1           0       -0.027147   -1.683293    0.925526
      5          1           0       -0.027147   -1.683293   -0.925526
 ---------------------------------------------------------------------
 Rotational constants (GHZ):    290.4141678     10.7978495     10.4166042
 Standard basis: 6-311+G(2d,p) (5D, 7F)
 There are    69 symmetry adapted cartesian basis functions of A'  symmetry.
 There are    30 symmetry adapted cartesian basis functions of A"  symmetry.
 There are    63 symmetry adapted basis functions of A'  symmetry.
 There are    30 symmetry adapted basis functions of A"  symmetry.
    93 basis functions,   142 primitive gaussians,    99 cartesian basis functions
    11 alpha electrons       11 beta electrons
       nuclear repulsion energy        59.8421071500 Hartrees.
 NAtoms=    5 NActive=    5 NUniq=    4 SFac= 1.56D+00 NAtFMM=   60 NAOKFM=F Big=F
 Integral buffers will be    262144 words long.
 Raffenetti 2 integral format.
 Two-electron integral symmetry is turned on.
 R6APFD:  NTU= -4 IXU= 1 FactS= 1.050
 Nuclear repulsion after empirical dispersion term =       59.8418738799 Hartrees.
 One-electron integrals computed using PRISM.
 NBasis=    93 RedAO= T EigKep=  1.27D-04  NBF=    63    30
 NBsUse=    93 1.00D-06 EigRej= -1.00D+00 NBFU=    63    30
 ExpMin= 4.38D-02 ExpMax= 6.29D+03 ExpMxC= 9.49D+02 IAcc=3 IRadAn=         5 AccDes= 0.00D+00
 Harris functional with IExCor= 3731 and IRadAn=       5 diagonalized for initial guess.
 HarFok:  IExCor= 3731 AccDes= 0.00D+00 IRadAn=         5 IDoV= 1 UseB2=F ITyADJ=14
 ICtDFT=  3500011 ScaDFX=  1.000000  1.000000  1.000000  1.000000
 FoFCou: FMM=F IPFlag=           0 FMFlag=      100000 FMFlg1=           0
         NFxFlg=           0 DoJE=T BraDBF=F KetDBF=T FulRan=T
         wScrn=  0.000000 ICntrl=     500 IOpCl=  0 I1Cent=   200000004 NGrid=           0
         NMat0=    1 NMatS0=      1 NMatT0=    0 NMatD0=    1 NMtDS0=    0 NMtDT0=    0
 Petite list used in FoFCou.
 Initial guess orbital symmetries:
       Occupied  (A') (A') (A') (A') (A') (A') (A") (A') (A') (A")
                 (A')
       Virtual   (A") (A') (A') (A') (A") (A') (A') (A") (A') (A')
                 (A') (A") (A') (A') (A") (A') (A') (A') (A") (A')
                 (A') (A") (A') (A") (A') (A') (A") (A') (A') (A")
                 (A') (A') (A") (A') (A") (A') (A') (A') (A") (A")
                 (A') (A') (A') (A') (A") (A') (A") (A') (A') (A")
                 (A") (A') (A') (A") (A') (A') (A") (A") (A') (A')
                 (A') (A') (A") (A') (A') (A") (A") (A') (A') (A")
                 (A') (A") (A') (A') (A") (A') (A") (A') (A') (A')
                 (A') (A')
 The electronic state of the initial guess is 1-A'.
 Keep R1 ints in memory in symmetry-blocked form, NReq=14475237.
 Requested convergence on RMS density matrix=1.00D-08 within 128 cycles.
 Requested convergence on MAX density matrix=1.00D-06.
 Requested convergence on             energy=1.00D-06.
 No special actions if energy rises.
 SCF Done:  E(RAPFD) =  -148.645864372     A.U. after   12 cycles
            NFock= 12  Conv=0.44D-08     -V/T= 2.0054

 **********************************************************************

            Population analysis using the SCF density.

 **********************************************************************

 Orbital symmetries:
       Occupied  (A') (A') (A') (A') (A') (A') (A") (A') (A') (A")
                 (A')
       Virtual   (A") (A') (A') (A') (A") (A') (A') (A") (A') (A')
                 (A') (A") (A') (A') (A") (A') (A') (A') (A") (A')
                 (A') (A") (A') (A") (A') (A') (A") (A') (A') (A")
                 (A') (A") (A') (A') (A') (A") (A') (A") (A') (A")
                 (A') (A') (A') (A") (A') (A') (A") (A') (A") (A')
                 (A") (A') (A') (A") (A') (A') (A") (A") (A') (A')
                 (A') (A') (A") (A") (A') (A') (A") (A') (A") (A')
                 (A') (A") (A') (A') (A") (A') (A") (A') (A') (A')
                 (A') (A')
 The electronic state is 1-A'.
 Alpha  occ. eigenvalues --  -14.49810 -14.43140 -10.24351  -1.08995  -0.86971
 Alpha  occ. eigenvalues --   -0.59036  -0.52843  -0.47436  -0.46273  -0.39501
 Alpha  occ. eigenvalues --   -0.24379
 Alpha virt. eigenvalues --   -0.07332  -0.00946   0.01145   0.05050   0.05082
 Alpha virt. eigenvalues --    0.08035   0.10831   0.13838   0.14511   0.14931
 Alpha virt. eigenvalues --    0.18855   0.21485   0.22112   0.22474   0.23169
 Alpha virt. eigenvalues --    0.25642   0.29855   0.38279   0.50610   0.51102
 Alpha virt. eigenvalues --    0.54991   0.56421   0.64413   0.66945   0.75713
 Alpha virt. eigenvalues --    0.76439   0.77184   0.78006   0.79809   0.86188
 Alpha virt. eigenvalues --    0.86706   0.86931   0.87515   0.96496   0.98814
 Alpha virt. eigenvalues --    1.00590   1.14300   1.23917   1.25405   1.26824
 Alpha virt. eigenvalues --    1.29400   1.35792   1.39903   1.68171   1.68891
 Alpha virt. eigenvalues --    1.80146   1.88695   1.94240   2.09758   2.11772
 Alpha virt. eigenvalues --    2.33725   2.34775   2.56813   2.64685   2.81194
 Alpha virt. eigenvalues --    2.86485   3.19525   3.27267   3.39117   3.43920
 Alpha virt. eigenvalues --    3.55046   3.81286   3.85069   3.96779   3.97263
 Alpha virt. eigenvalues --    3.97504   4.11975   4.41709   4.65942   4.66223
 Alpha virt. eigenvalues --    4.68975   4.79362   4.80925   4.85658   4.92052
 Alpha virt. eigenvalues --    5.13082   5.23228   5.27538   5.87760  24.23628
 Alpha virt. eigenvalues --   35.41893  35.81712
     Molecular Orbital Coefficients:
                           1         2         3         4         5
                           O         O         O         O         O
     Eigenvalues --   -14.49810 -14.43140 -10.24351  -1.08995  -0.86971
   1 1   N  1S          0.55761  -0.00285  -0.00010  -0.10146  -0.03512
   2        2S          0.46574  -0.00232  -0.00007  -0.16069  -0.05631
   3        2PX        -0.00004   0.00003  -0.00003   0.00317  -0.01098
   4        2PY         0.00002   0.00045  -0.00053   0.04923  -0.17673
   5        2PZ         0.00000   0.00000   0.00000   0.00000   0.00000
   6        3S          0.01437   0.00180   0.00298   0.44577   0.15993
   7        3PX         0.00005  -0.00008   0.00010   0.00430  -0.01589
   8        3PY         0.00038  -0.00121   0.00144   0.06923  -0.25489
   9        3PZ         0.00000   0.00000   0.00000   0.00000   0.00000
  10        4S          0.00477  -0.01061  -0.02058   0.22586   0.12911
  11        4PX         0.00034   0.00061   0.00067  -0.00052  -0.00329
  12        4PY         0.00573   0.00961   0.01037  -0.01000  -0.05508
  13        4PZ         0.00000   0.00000   0.00000   0.00000   0.00000
  14        5S          0.01684   0.00067   0.01207  -0.14266  -0.13861
  15        5PX         0.00049   0.00023   0.00007  -0.00260  -0.00123
  16        5PY         0.00752   0.00358   0.00147  -0.04064  -0.01717
  17        5PZ         0.00000   0.00000   0.00000   0.00000   0.00000
  18        6D 0       -0.00020  -0.00012  -0.00014  -0.00744  -0.00081
  19        6D+1        0.00000   0.00000   0.00000   0.00000   0.00000
  20        6D-1        0.00000   0.00000   0.00000   0.00000   0.00000
  21        6D+2       -0.00051  -0.00023  -0.00042  -0.01323  -0.00152
  22        6D-2        0.00006   0.00003   0.00005   0.00171   0.00019
  23        7D 0       -0.00173   0.00259   0.00312  -0.00593  -0.00004
  24        7D+1        0.00000   0.00000   0.00000   0.00000   0.00000
  25        7D-1        0.00000   0.00000   0.00000   0.00000   0.00000
  26        7D+2       -0.00241   0.00453   0.00639  -0.01557  -0.00080
  27        7D-2        0.00034  -0.00059  -0.00080   0.00202   0.00015
  28 2   N  1S          0.00279   0.55765   0.00001  -0.07217   0.06039
  29        2S          0.00250   0.46589  -0.00026  -0.11370   0.09607
  30        2PX        -0.00004  -0.00012   0.00001  -0.00545   0.00324
  31        2PY        -0.00062  -0.00168   0.00012  -0.08351   0.04880
  32        2PZ         0.00000   0.00000   0.00000   0.00000   0.00000
  33        3S         -0.00030   0.01543   0.00309   0.31123  -0.27502
  34        3PX         0.00017  -0.00016  -0.00016  -0.00786   0.00470
  35        3PY         0.00275  -0.00245  -0.00245  -0.11996   0.07093
  36        3PZ         0.00000   0.00000   0.00000   0.00000   0.00000
  37        4S         -0.01044  -0.01087  -0.00119   0.18636  -0.20123
  38        4PX         0.00035   0.00020   0.00001  -0.00319   0.00234
  39        4PY         0.00541   0.00304   0.00058  -0.04885   0.03633
  40        4PZ         0.00000   0.00000   0.00000   0.00000   0.00000
  41        5S         -0.01572   0.00033  -0.00727   0.08795   0.10677
  42        5PX         0.00022  -0.00007   0.00018  -0.00111  -0.00239
  43        5PY         0.00306  -0.00115   0.00204  -0.01547  -0.03579
  44        5PZ         0.00000   0.00000   0.00000   0.00000   0.00000
  45        6D 0        0.00005  -0.00031  -0.00013  -0.00592   0.00325
  46        6D+1        0.00000   0.00000   0.00000   0.00000   0.00000
  47        6D-1        0.00000   0.00000   0.00000   0.00000   0.00000
  48        6D+2        0.00010  -0.00059  -0.00019  -0.01133   0.00650
  49        6D-2       -0.00001   0.00008   0.00002   0.00150  -0.00088
  50        7D 0        0.00122  -0.00002  -0.00002  -0.00774   0.00187
  51        7D+1        0.00000   0.00000   0.00000   0.00000   0.00000
  52        7D-1        0.00000   0.00000   0.00000   0.00000   0.00000
  53        7D+2        0.00197   0.00003  -0.00027  -0.01614   0.00561
  54        7D-2       -0.00025  -0.00001   0.00005   0.00216  -0.00075
  55 3   C  1S         -0.00002   0.00006   0.56322  -0.02961  -0.08184
  56        2S          0.00017  -0.00029   0.46289  -0.04542  -0.12725
  57        2PX         0.00001  -0.00001   0.00010   0.00297   0.00734
  58        2PY         0.00045  -0.00018   0.00079   0.03829   0.07342
  59        2PZ         0.00000   0.00000   0.00000   0.00000   0.00000
  60        3S         -0.00093   0.00353   0.02236   0.10741   0.33260
  61        3PX        -0.00007   0.00025   0.00072   0.00369   0.01015
  62        3PY        -0.00325   0.00406   0.00480   0.04945   0.10295
  63        3PZ         0.00000   0.00000   0.00000   0.00000   0.00000
  64        4S          0.00349   0.01200   0.01002   0.01828   0.16919
  65        4PX         0.00008   0.00032   0.00047   0.00029   0.00305
  66        4PY        -0.00025   0.00455   0.00466   0.00544   0.02728
  67        4PZ         0.00000   0.00000   0.00000   0.00000   0.00000
  68        5S         -0.00151  -0.00100  -0.00441   0.03459   0.02127
  69        5PX        -0.00013  -0.00011  -0.00019   0.00143   0.00058
  70        5PY        -0.00101  -0.00131  -0.00125   0.01730   0.00278
  71        5PZ         0.00000   0.00000   0.00000   0.00000   0.00000
  72        6D 0        0.00037  -0.00025   0.00002  -0.00338  -0.00474
  73        6D+1        0.00000   0.00000   0.00000   0.00000   0.00000
  74        6D-1        0.00000   0.00000   0.00000   0.00000   0.00000
  75        6D+2        0.00048  -0.00028  -0.00137  -0.00755  -0.01472
  76        6D-2       -0.00008   0.00004   0.00010   0.00097   0.00174
  77        7D 0        0.00185  -0.00026   0.00124  -0.00681  -0.00429
  78        7D+1        0.00000   0.00000   0.00000   0.00000   0.00000
  79        7D-1        0.00000   0.00000   0.00000   0.00000   0.00000
  80        7D+2        0.00108  -0.00080  -0.00206  -0.00718  -0.01052
  81        7D-2       -0.00019   0.00012   0.00012   0.00130   0.00183
  82 4   H  1S         -0.00009   0.00003   0.00024   0.00906   0.03967
  83        2S         -0.00196  -0.00026  -0.00495   0.01375   0.04645
  84        3S          0.00094   0.00036   0.00202  -0.00507  -0.00455
  85        4PX         0.00003  -0.00001   0.00012  -0.00002  -0.00012
  86        4PY        -0.00050  -0.00002  -0.00127   0.00244   0.00582
  87        4PZ         0.00033  -0.00019   0.00160  -0.00163  -0.00709
  88 5   H  1S         -0.00009   0.00003   0.00024   0.00906   0.03967
  89        2S         -0.00196  -0.00026  -0.00495   0.01375   0.04645
  90        3S          0.00094   0.00036   0.00202  -0.00507  -0.00455
  91        4PX         0.00003  -0.00001   0.00012  -0.00002  -0.00012
  92        4PY        -0.00050  -0.00002  -0.00127   0.00244   0.00582
  93        4PZ        -0.00033   0.00019  -0.00160   0.00163   0.00709
                           6         7         8         9        10
                           O         O         O         O         O
     Eigenvalues --    -0.59036  -0.52843  -0.47436  -0.46273  -0.39501
   1 1   N  1S          0.04406   0.00000  -0.00394   0.02651   0.00000
   2        2S          0.07186   0.00000  -0.00645   0.04343   0.00000
   3        2PX         0.01142   0.00000   0.22325   0.01082   0.00000
   4        2PY         0.06729   0.00000  -0.00581  -0.13281   0.00000
   5        2PZ         0.00000   0.16256   0.00000   0.00000   0.15653
   6        3S         -0.21762   0.00000   0.01995  -0.13553   0.00000
   7        3PX         0.01767   0.00000   0.34813   0.01726   0.00000
   8        3PY         0.09919   0.00000  -0.00949  -0.20005   0.00000
   9        3PZ         0.00000   0.25114   0.00000   0.00000   0.24279
  10        4S         -0.20621   0.00000   0.02464  -0.16856   0.00000
  11        4PX         0.00786   0.00000   0.22697   0.01071   0.00000
  12        4PY         0.01473   0.00000  -0.00885  -0.13715   0.00000
  13        4PZ         0.00000   0.15456   0.00000   0.00000   0.18025
  14        5S          0.19340   0.00000  -0.03628   0.12263   0.00000
  15        5PX         0.00403   0.00000  -0.00484   0.00355   0.00000
  16        5PY         0.09396   0.00000  -0.02506   0.04277   0.00000
  17        5PZ         0.00000  -0.00110   0.00000   0.00000   0.04225
  18        6D 0        0.00114   0.00000  -0.00007   0.00069   0.00000
  19        6D+1        0.00000  -0.00018   0.00000   0.00000   0.00059
  20        6D-1        0.00000  -0.00201   0.00000   0.00000   0.01070
  21        6D+2        0.00191   0.00000   0.00015   0.00131   0.00000
  22        6D-2       -0.00048   0.00000   0.00286   0.00023   0.00000
  23        7D 0       -0.00157   0.00000   0.00043  -0.00189   0.00000
  24        7D+1        0.00000   0.00049   0.00000   0.00000   0.00243
  25        7D-1        0.00000  -0.00112   0.00000   0.00000   0.04189
  26        7D+2       -0.00347   0.00000   0.00042   0.00016   0.00000
  27        7D-2       -0.00118   0.00000   0.00201   0.00103   0.00000
  28 2   N  1S         -0.03522   0.00000   0.00752  -0.07466   0.00000
  29        2S         -0.05670   0.00000   0.01216  -0.12082   0.00000
  30        2PX         0.00378   0.00000   0.13955   0.02610   0.00000
  31        2PY         0.01827   0.00000  -0.02679   0.19882   0.00000
  32        2PZ         0.00000   0.07833   0.00000   0.00000   0.16173
  33        3S          0.16588   0.00000  -0.03520   0.34816   0.00000
  34        3PX         0.00592   0.00000   0.21585   0.03856   0.00000
  35        3PY         0.02451   0.00000  -0.03916   0.28198   0.00000
  36        3PZ         0.00000   0.12303   0.00000   0.00000   0.24592
  37        4S          0.18674   0.00000  -0.04698   0.51156   0.00000
  38        4PX         0.00271   0.00000   0.14731   0.02295   0.00000
  39        4PY         0.00310   0.00000  -0.02304   0.13679   0.00000
  40        4PZ         0.00000   0.07840   0.00000   0.00000   0.18598
  41        5S         -0.21640   0.00000   0.04645  -0.07150   0.00000
  42        5PX         0.00445   0.00000   0.01070   0.00402   0.00000
  43        5PY         0.05855   0.00000  -0.01377   0.04688   0.00000
  44        5PZ         0.00000   0.00088   0.00000   0.00000   0.00598
  45        6D 0        0.00069   0.00000  -0.00070   0.00801   0.00000
  46        6D+1        0.00000  -0.00051   0.00000   0.00000  -0.00075
  47        6D-1        0.00000  -0.00796   0.00000   0.00000  -0.01125
  48        6D+2        0.00048   0.00000  -0.00265   0.01214   0.00000
  49        6D-2       -0.00036   0.00000  -0.01192  -0.00270   0.00000
  50        7D 0        0.00224   0.00000  -0.00095   0.00906   0.00000
  51        7D+1        0.00000  -0.00157   0.00000   0.00000  -0.00176
  52        7D-1        0.00000  -0.02292   0.00000   0.00000  -0.02726
  53        7D+2        0.00218   0.00000  -0.00563   0.01036   0.00000
  54        7D-2       -0.00142   0.00000  -0.03460  -0.00434   0.00000
  55 3   C  1S         -0.06387   0.00000   0.00419  -0.00295   0.00000
  56        2S         -0.10104   0.00000   0.00669  -0.00468   0.00000
  57        2PX         0.00355   0.00000   0.09030   0.00919   0.00000
  58        2PY        -0.15325   0.00000  -0.00466   0.07388   0.00000
  59        2PZ         0.00000   0.16668   0.00000   0.00000  -0.12756
  60        3S          0.26088   0.00000  -0.01819   0.01766   0.00000
  61        3PX         0.00480   0.00000   0.14382   0.01467   0.00000
  62        3PY        -0.20699   0.00000  -0.00733   0.09927   0.00000
  63        3PZ         0.00000   0.23313   0.00000   0.00000  -0.16454
  64        4S          0.24414   0.00000  -0.02540  -0.02901   0.00000
  65        4PX         0.00298   0.00000   0.08799   0.00749   0.00000
  66        4PY        -0.08968   0.00000  -0.00475   0.03652   0.00000
  67        4PZ         0.00000   0.10750   0.00000   0.00000  -0.13057
  68        5S          0.02722   0.00000  -0.00616  -0.00510   0.00000
  69        5PX         0.00138   0.00000   0.01192   0.00020   0.00000
  70        5PY        -0.00528   0.00000  -0.00196   0.00069   0.00000
  71        5PZ         0.00000   0.01768   0.00000   0.00000  -0.01740
  72        6D 0        0.01401   0.00000  -0.00012  -0.00497   0.00000
  73        6D+1        0.00000   0.00197   0.00000   0.00000  -0.00079
  74        6D-1        0.00000   0.00183   0.00000   0.00000   0.01556
  75        6D+2        0.00617   0.00000   0.00202  -0.00455   0.00000
  76        6D-2       -0.00153   0.00000   0.01330   0.00207   0.00000
  77        7D 0        0.00532   0.00000  -0.00080   0.00168   0.00000
  78        7D+1        0.00000   0.00273   0.00000   0.00000  -0.00009
  79        7D-1        0.00000   0.03601   0.00000   0.00000   0.03232
  80        7D+2        0.00336   0.00000   0.00478   0.00004   0.00000
  81        7D-2       -0.00184   0.00000   0.02434   0.00304   0.00000
  82 4   H  1S          0.11972   0.10352  -0.00036  -0.02786  -0.10901
  83        2S          0.16310   0.16867   0.00153  -0.04502  -0.16209
  84        3S          0.02189   0.02101  -0.00363  -0.00816  -0.06536
  85        4PX        -0.00101  -0.00179   0.00664   0.00096   0.00065
  86        4PY         0.00543   0.00924  -0.00028  -0.00022  -0.01248
  87        4PZ        -0.01990  -0.01294  -0.00044   0.00475   0.00826
  88 5   H  1S          0.11972  -0.10352  -0.00036  -0.02786   0.10901
  89        2S          0.16310  -0.16867   0.00153  -0.04502   0.16209
  90        3S          0.02189  -0.02101  -0.00363  -0.00816   0.06536
  91        4PX        -0.00101   0.00179   0.00664   0.00096  -0.00065
  92        4PY         0.00543  -0.00924  -0.00028  -0.00022   0.01248
  93        4PZ         0.01990  -0.01294   0.00044  -0.00475   0.00826
                          11        12        13        14        15
                           O         V         V         V         V
     Eigenvalues --    -0.24379  -0.07332  -0.00946   0.01145   0.05050
   1 1   N  1S         -0.00121   0.00000  -0.00137   0.00174   0.01411
   2        2S         -0.00200   0.00000  -0.00230   0.00282   0.02439
   3        2PX         0.03468   0.00000  -0.20790  -0.01196  -0.00092
   4        2PY        -0.00555   0.00000   0.01091   0.00427   0.02955
   5        2PZ         0.00000  -0.19871   0.00000   0.00000   0.00000
   6        3S          0.00654   0.00000   0.00829  -0.01536  -0.10202
   7        3PX         0.05559   0.00000  -0.32447  -0.01837  -0.00120
   8        3PY        -0.00849   0.00000   0.01695  -0.00004   0.03094
   9        3PZ         0.00000  -0.31108   0.00000   0.00000   0.00000
  10        4S          0.00709   0.00000  -0.00944   0.39921  -0.08284
  11        4PX         0.05218   0.00000  -0.37949  -0.06132  -0.01194
  12        4PY        -0.00998   0.00000   0.04448  -0.51921   0.00769
  13        4PZ         0.00000  -0.33518   0.00000   0.00000   0.00000
  14        5S         -0.06176   0.00000   0.00639  -2.99317  -1.95566
  15        5PX        -0.02264   0.00000  -0.54100  -0.25576   0.06979
  16        5PY        -0.04340   0.00000   0.12809  -3.64533   0.21917
  17        5PZ         0.00000  -0.27083   0.00000   0.00000   0.00000
  18        6D 0       -0.00003   0.00000   0.00010  -0.00288   0.00262
  19        6D+1        0.00000   0.00093   0.00000   0.00000   0.00000
  20        6D-1        0.00000   0.01230   0.00000   0.00000   0.00000
  21        6D+2       -0.00219   0.00000   0.00062  -0.00460   0.00344
  22        6D-2       -0.01711   0.00000   0.00188   0.00057  -0.00055
  23        7D 0        0.00105   0.00000   0.00322  -0.03388   0.00498
  24        7D+1        0.00000   0.00341   0.00000   0.00000   0.00000
  25        7D-1        0.00000   0.04515   0.00000   0.00000   0.00000
  26        7D+2       -0.00869   0.00000   0.00387  -0.05445   0.01107
  27        7D-2       -0.07018   0.00000   0.00581   0.00671  -0.00104
  28 2   N  1S          0.00010   0.00000   0.00097  -0.01569   0.01640
  29        2S          0.00017   0.00000   0.00159  -0.02553   0.02776
  30        2PX        -0.20701   0.00000   0.14744   0.00785   0.00125
  31        2PY         0.01560   0.00000  -0.00695  -0.01689  -0.01721
  32        2PZ         0.00000   0.22792   0.00000   0.00000   0.00000
  33        3S         -0.00064   0.00000  -0.00498   0.07386  -0.10507
  34        3PX        -0.30598   0.00000   0.22184   0.01232   0.00329
  35        3PY         0.02279   0.00000  -0.01101  -0.01912  -0.01082
  36        3PZ         0.00000   0.34457   0.00000   0.00000   0.00000
  37        4S          0.00361   0.00000  -0.01435   0.37416  -0.06854
  38        4PX        -0.29054   0.00000   0.29193   0.01025  -0.00459
  39        4PY         0.01887   0.00000  -0.01252  -0.13660  -0.12866
  40        4PZ         0.00000   0.39952   0.00000   0.00000   0.00000
  41        5S          0.08615   0.00000  -0.13655   6.35189  -0.14729
  42        5PX        -0.06295   0.00000   0.36351  -0.08089  -0.00281
  43        5PY        -0.01483   0.00000   0.00845  -1.49644   0.15651
  44        5PZ         0.00000   0.26340   0.00000   0.00000   0.00000
  45        6D 0        0.00007   0.00000   0.00005  -0.00006   0.00058
  46        6D+1        0.00000   0.00019   0.00000   0.00000   0.00000
  47        6D-1        0.00000   0.00300   0.00000   0.00000   0.00000
  48        6D+2        0.00080   0.00000   0.00093  -0.00048   0.00168
  49        6D-2        0.00527   0.00000   0.00674   0.00052  -0.00014
  50        7D 0       -0.00020   0.00000  -0.00020  -0.00324   0.00021
  51        7D+1        0.00000   0.00093   0.00000   0.00000   0.00000
  52        7D-1        0.00000   0.01273   0.00000   0.00000   0.00000
  53        7D+2        0.00049   0.00000   0.00239  -0.00401  -0.00261
  54        7D-2        0.00493   0.00000   0.01874   0.00131   0.00066
  55 3   C  1S          0.00487   0.00000   0.00671  -0.03885  -0.00804
  56        2S          0.00796   0.00000   0.01110  -0.06501  -0.01302
  57        2PX         0.19270   0.00000   0.12473   0.01067   0.00183
  58        2PY        -0.00384   0.00000   0.00053  -0.01828  -0.02718
  59        2PZ         0.00000  -0.00253   0.00000   0.00000   0.00000
  60        3S         -0.02179   0.00000  -0.03263   0.24516   0.01986
  61        3PX         0.29192   0.00000   0.19455   0.01133   0.00580
  62        3PY        -0.00486   0.00000   0.00512  -0.09363  -0.06791
  63        3PZ         0.00000  -0.00902   0.00000   0.00000   0.00000
  64        4S         -0.04879   0.00000  -0.04481  -0.80572   0.24625
  65        4PX         0.31252   0.00000   0.36529  -0.00144   0.00724
  66        4PY        -0.00904   0.00000   0.02990  -0.68293   0.03251
  67        4PZ         0.00000  -0.05311   0.00000   0.00000   0.00000
  68        5S         -0.01403   0.00000   0.12216  -3.53270   1.48071
  69        5PX         0.06712   0.00000   0.59462  -0.02245   0.04122
  70        5PY        -0.00361   0.00000  -0.00693  -0.39187   1.96097
  71        5PZ         0.00000   0.11272   0.00000   0.00000   0.00000
  72        6D 0       -0.00022   0.00000   0.00059  -0.00155   0.00646
  73        6D+1        0.00000  -0.00017   0.00000   0.00000   0.00000
  74        6D-1        0.00000  -0.02171   0.00000   0.00000   0.00000
  75        6D+2        0.00072   0.00000  -0.00213  -0.00165   0.00695
  76        6D-2        0.00584   0.00000  -0.01421  -0.00056  -0.00134
  77        7D 0       -0.00292   0.00000  -0.00479   0.03954   0.04833
  78        7D+1        0.00000  -0.00198   0.00000   0.00000   0.00000
  79        7D-1        0.00000  -0.04496   0.00000   0.00000   0.00000
  80        7D+2        0.00221   0.00000  -0.00738   0.06499   0.02395
  81        7D-2       -0.00141   0.00000  -0.04825  -0.01208  -0.00361
  82 4   H  1S          0.00429   0.05941   0.00906   0.00345   0.01180
  83        2S          0.00984   0.12484   0.02412  -0.01681  -0.06746
  84        3S         -0.00330   0.20403   0.03457  -0.24597   0.24657
  85        4PX         0.01796   0.00001   0.02061   0.00010   0.00139
  86        4PY         0.00085  -0.00237  -0.00009   0.00742   0.00671
  87        4PZ        -0.00118  -0.00123   0.00000  -0.01681   0.00457
  88 5   H  1S          0.00429  -0.05941   0.00906   0.00345   0.01180
  89        2S          0.00984  -0.12484   0.02412  -0.01681  -0.06746
  90        3S         -0.00330  -0.20403   0.03457  -0.24597   0.24657
  91        4PX         0.01796  -0.00001   0.02061   0.00010   0.00139
  92        4PY         0.00085   0.00237  -0.00009   0.00742   0.00671
  93        4PZ         0.00118  -0.00123   0.00000   0.01681  -0.00457
                          16        17        18        19        20
                           V         V         V         V         V
     Eigenvalues --     0.05082   0.08035   0.10831   0.13838   0.14511
   1 1   N  1S          0.00000   0.00211  -0.02349   0.00000   0.01115
   2        2S          0.00000   0.00375  -0.03970   0.00000   0.01955
   3        2PX         0.00000   0.07743   0.00299   0.00000  -0.02197
   4        2PY         0.00000  -0.00246   0.00950   0.00000   0.01211
   5        2PZ         0.02104   0.00000   0.00000  -0.05722   0.00000
   6        3S          0.00000  -0.01936   0.15711   0.00000  -0.08677
   7        3PX         0.00000   0.09805   0.00289   0.00000  -0.02282
   8        3PY         0.00000  -0.00238   0.00034   0.00000   0.02183
   9        3PZ         0.01738   0.00000   0.00000  -0.06610   0.00000
  10        4S          0.00000   0.07958  -0.29770   0.00000   0.29953
  11        4PX         0.00000   0.31306  -0.02871   0.00000  -0.12383
  12        4PY         0.00000  -0.11305  -0.66640   0.00000  -0.42154
  13        4PZ         0.12206   0.00000   0.00000  -0.23677   0.00000
  14        5S          0.00000  -1.36142  13.86456   0.00000  -6.40552
  15        5PX         0.00000  -0.71104   0.25946   0.00000  -0.19541
  16        5PY         0.00000  -0.83164   4.51845   0.00000  -4.21841
  17        5PZ        -0.82797   0.00000   0.00000   0.32898   0.00000
  18        6D 0        0.00000  -0.00012   0.00148   0.00000  -0.00286
  19        6D+1       -0.00017   0.00000   0.00000  -0.00080   0.00000
  20        6D-1       -0.00046   0.00000   0.00000  -0.01036   0.00000
  21        6D+2        0.00000   0.00050   0.00164   0.00000  -0.00057
  22        6D-2        0.00000   0.00226  -0.00009   0.00000  -0.00420
  23        7D 0        0.00000  -0.00514   0.03979   0.00000  -0.03377
  24        7D+1       -0.00016   0.00000   0.00000  -0.00019   0.00000
  25        7D-1        0.00398   0.00000   0.00000   0.00989   0.00000
  26        7D+2        0.00000  -0.00538   0.06964   0.00000  -0.00627
  27        7D-2        0.00000   0.01035  -0.00991   0.00000   0.00274
  28 2   N  1S          0.00000  -0.00052   0.03055   0.00000   0.00101
  29        2S          0.00000  -0.00073   0.05040   0.00000   0.00159
  30        2PX         0.00000  -0.08709  -0.00310   0.00000  -0.03527
  31        2PY         0.00000   0.00300  -0.00778   0.00000  -0.02219
  32        2PZ        -0.05559   0.00000   0.00000  -0.08600   0.00000
  33        3S          0.00000  -0.00019  -0.17796   0.00000  -0.00467
  34        3PX         0.00000  -0.12582  -0.00516   0.00000  -0.03438
  35        3PY         0.00000   0.00774  -0.02950   0.00000  -0.01966
  36        3PZ        -0.08780   0.00000   0.00000  -0.08939   0.00000
  37        4S          0.00000   0.04898   0.35682   0.00000   0.12792
  38        4PX         0.00000  -0.23884  -0.04414   0.00000  -0.15304
  39        4PY         0.00000  -0.01798  -0.53450   0.00000  -0.20474
  40        4PZ        -0.11407   0.00000   0.00000  -0.34755   0.00000
  41        5S          0.00000   1.74544 -12.25619   0.00000   8.72715
  42        5PX         0.00000   0.26645   0.32799   0.00000   0.35204
  43        5PY         0.00000  -0.44795   4.65579   0.00000  -2.08334
  44        5PZ         0.27785   0.00000   0.00000   1.08700   0.00000
  45        6D 0        0.00000   0.00017  -0.00098   0.00000   0.00074
  46        6D+1        0.00001   0.00000   0.00000   0.00043   0.00000
  47        6D-1        0.00016   0.00000   0.00000   0.00657   0.00000
  48        6D+2        0.00000  -0.00012  -0.00077   0.00000   0.00205
  49        6D-2        0.00000  -0.00320  -0.00002   0.00000   0.00252
  50        7D 0        0.00000  -0.00008  -0.04244   0.00000  -0.00621
  51        7D+1       -0.00008   0.00000   0.00000   0.00150   0.00000
  52        7D-1        0.00247   0.00000   0.00000   0.02811   0.00000
  53        7D+2        0.00000   0.00110  -0.07277   0.00000   0.00462
  54        7D-2        0.00000   0.00278   0.00972   0.00000   0.01012
  55 3   C  1S          0.00000  -0.00485   0.00312   0.00000  -0.03915
  56        2S          0.00000  -0.00783   0.00500   0.00000  -0.06261
  57        2PX         0.00000  -0.14639  -0.00615   0.00000   0.02576
  58        2PY         0.00000   0.00384  -0.04156   0.00000  -0.05408
  59        2PZ        -0.07544   0.00000   0.00000   0.06163   0.00000
  60        3S          0.00000   0.02468  -0.02118   0.00000   0.14338
  61        3PX         0.00000  -0.20953  -0.00552   0.00000   0.03130
  62        3PY         0.00000  -0.00389  -0.05518   0.00000  -0.08355
  63        3PZ        -0.15899   0.00000   0.00000   0.07365   0.00000
  64        4S          0.00000  -0.11298  -0.23593   0.00000   0.69142
  65        4PX         0.00000  -0.51430  -0.05548   0.00000   0.13914
  66        4PY         0.00000  -0.10486  -0.52642   0.00000  -1.09265
  67        4PZ        -0.00991   0.00000   0.00000   0.44484   0.00000
  68        5S          0.00000  -0.09912  -0.93867   0.00000   0.81315
  69        5PX         0.00000   1.42489  -0.02074   0.00000  -0.24837
  70        5PY         0.00000  -0.06284  -0.80827   0.00000  -0.61318
  71        5PZ         1.82383   0.00000   0.00000  -0.39037   0.00000
  72        6D 0        0.00000  -0.00086  -0.00448   0.00000  -0.01671
  73        6D+1       -0.00112   0.00000   0.00000  -0.00060   0.00000
  74        6D-1        0.00381   0.00000   0.00000   0.00445   0.00000
  75        6D+2        0.00000   0.00131  -0.01113   0.00000   0.00613
  76        6D-2        0.00000   0.00336   0.00141   0.00000   0.00059
  77        7D 0        0.00000   0.00494  -0.00069   0.00000  -0.00470
  78        7D+1       -0.00144   0.00000   0.00000   0.00208   0.00000
  79        7D-1        0.01045   0.00000   0.00000   0.05124   0.00000
  80        7D+2        0.00000   0.01357  -0.01097   0.00000   0.08571
  81        7D-2        0.00000  -0.00026  -0.00245   0.00000   0.00080
  82 4   H  1S         -0.03184  -0.00976   0.00664  -0.01107  -0.07664
  83        2S          0.02334   0.00149  -0.04093  -0.01819  -0.11185
  84        3S         -0.53428  -0.20146   0.19519  -0.63435  -2.45447
  85        4PX         0.00009  -0.00700  -0.00131  -0.00149   0.00042
  86        4PY        -0.00524   0.00062  -0.01027   0.01082  -0.00157
  87        4PZ         0.01016   0.00007  -0.00355  -0.01195  -0.02061
  88 5   H  1S          0.03184  -0.00976   0.00664   0.01107  -0.07664
  89        2S         -0.02334   0.00149  -0.04093   0.01819  -0.11185
  90        3S          0.53428  -0.20146   0.19519   0.63435  -2.45447
  91        4PX        -0.00009  -0.00700  -0.00131   0.00149   0.00042
  92        4PY         0.00524   0.00062  -0.01027  -0.01082  -0.00157
  93        4PZ         0.01016  -0.00007   0.00355  -0.01195   0.02061
                          21        22        23        24        25
                           V         V         V         V         V
     Eigenvalues --     0.14931   0.18855   0.21485   0.22112   0.22474
   1 1   N  1S          0.00459  -0.01852   0.00000   0.01096   0.00425
   2        2S          0.00811  -0.03087   0.00000   0.01851   0.00722
   3        2PX         0.01949  -0.00149   0.00000  -0.03806   0.08882
   4        2PY         0.00310  -0.02230   0.00000   0.05636   0.01865
   5        2PZ         0.00000   0.00000  -0.10471   0.00000   0.00000
   6        3S         -0.03771   0.05176   0.00000  -0.05314  -0.02296
   7        3PX         0.01289  -0.00032   0.00000  -0.04190   0.09516
   8        3PY         0.00681  -0.01205   0.00000   0.05117   0.01370
   9        3PZ         0.00000   0.00000  -0.12685   0.00000   0.00000
  10        4S          0.15387   1.10232   0.00000  -0.31004  -0.06443
  11        4PX         0.06056  -0.05684   0.00000  -0.30170   0.41618
  12        4PY        -0.20077  -0.84159   0.00000  -1.11828  -0.54514
  13        4PZ         0.00000   0.00000  -0.55172   0.00000   0.00000
  14        5S         -3.00386  -6.23653   0.00000  -0.76123  -0.56588
  15        5PX        -0.43299  -0.41359   0.00000   1.07015  -3.87823
  16        5PY        -1.91755  -6.25822   0.00000  -8.73915  -3.77889
  17        5PZ         0.00000   0.00000   3.88471   0.00000   0.00000
  18        6D 0       -0.00128   0.01554   0.00000   0.00058   0.00052
  19        6D+1        0.00000   0.00000  -0.00010   0.00000   0.00000
  20        6D-1        0.00000   0.00000   0.00240   0.00000   0.00000
  21        6D+2        0.00094   0.02727   0.00000   0.00541   0.00213
  22        6D-2        0.00757  -0.00347   0.00000   0.00052  -0.00390
  23        7D 0       -0.01557  -0.00741   0.00000   0.02376   0.00820
  24        7D+1        0.00000   0.00000   0.00195   0.00000   0.00000
  25        7D-1        0.00000   0.00000   0.01083   0.00000   0.00000
  26        7D+2       -0.00567  -0.01365   0.00000   0.04479   0.01857
  27        7D-2       -0.01350   0.00047   0.00000  -0.00507   0.00096
  28 2   N  1S          0.00048   0.03678   0.00000  -0.00028  -0.00006
  29        2S          0.00080   0.06080   0.00000   0.00128   0.00077
  30        2PX         0.10269   0.00637   0.00000   0.01343  -0.02034
  31        2PY        -0.01761   0.09162   0.00000   0.01922   0.01239
  32        2PZ         0.00000   0.00000   0.04463   0.00000   0.00000
  33        3S         -0.00312  -0.17729   0.00000  -0.05859  -0.02805
  34        3PX         0.10902   0.01131   0.00000   0.00814  -0.01482
  35        3PY        -0.01610   0.16844   0.00000  -0.01512  -0.00075
  36        3PZ         0.00000   0.00000   0.04103   0.00000   0.00000
  37        4S          0.06067  -0.65732   0.00000   1.29558   0.57816
  38        4PX         0.41949   0.00774   0.00000   0.05701  -0.19144
  39        4PY        -0.12462   0.06025   0.00000  -0.56181  -0.22491
  40        4PZ         0.00000   0.00000   0.26899   0.00000   0.00000
  41        5S          4.01755  14.32803   0.00000   9.99235   4.71274
  42        5PX        -1.24541  -0.28217   0.00000  -1.01535   2.03984
  43        5PY        -0.86333  -4.22918   0.00000  -0.79916  -0.57414
  44        5PZ         0.00000   0.00000  -2.41946   0.00000   0.00000
  45        6D 0        0.00031   0.00495   0.00000  -0.00024  -0.00019
  46        6D+1        0.00000   0.00000   0.00017   0.00000   0.00000
  47        6D-1        0.00000   0.00000   0.00199   0.00000   0.00000
  48        6D+2        0.00017   0.00967   0.00000  -0.00075  -0.00069
  49        6D-2       -0.00423  -0.00125   0.00000   0.00101  -0.00143
  50        7D 0       -0.00274   0.00946   0.00000  -0.04376  -0.01901
  51        7D+1        0.00000   0.00000  -0.00190   0.00000   0.00000
  52        7D-1        0.00000   0.00000  -0.02033   0.00000   0.00000
  53        7D+2       -0.00219   0.01529   0.00000  -0.06410  -0.02437
  54        7D-2       -0.02809  -0.00286   0.00000  -0.00189   0.02537
  55 3   C  1S         -0.01683   0.03874   0.00000   0.02097   0.01031
  56        2S         -0.02692   0.06572   0.00000   0.03225   0.01594
  57        2PX        -0.00298  -0.00536   0.00000  -0.01303   0.04441
  58        2PY        -0.02193  -0.09168   0.00000   0.02884   0.00940
  59        2PZ         0.00000   0.00000  -0.01719   0.00000   0.00000
  60        3S          0.06204  -0.16313   0.00000   0.01709   0.00304
  61        3PX        -0.01900  -0.02001   0.00000  -0.01907   0.02436
  62        3PY        -0.03528  -0.24614   0.00000   0.02491   0.00201
  63        3PZ         0.00000   0.00000  -0.04933   0.00000   0.00000
  64        4S          0.27852  -2.69799   0.00000  -3.41528  -1.57598
  65        4PX        -0.00035  -0.06792   0.00000  -0.12746   0.29417
  66        4PY        -0.48735  -1.36360   0.00000  -0.82480  -0.43930
  67        4PZ         0.00000   0.00000  -0.24388   0.00000   0.00000
  68        5S          0.35516  -5.29245   0.00000  -5.09467  -2.27789
  69        5PX         0.75453  -0.09587   0.00000  -0.63128   1.28654
  70        5PY        -0.29666  -1.68833   0.00000  -1.30360  -0.64810
  71        5PZ         0.00000   0.00000  -1.16640   0.00000   0.00000
  72        6D 0       -0.00716  -0.00519   0.00000  -0.00155  -0.00095
  73        6D+1        0.00000   0.00000  -0.00083   0.00000   0.00000
  74        6D-1        0.00000   0.00000  -0.00349   0.00000   0.00000
  75        6D+2        0.00223  -0.00199   0.00000   0.01235   0.00636
  76        6D-2       -0.00173   0.00034   0.00000  -0.00311   0.00391
  77        7D 0       -0.00183   0.03702   0.00000   0.00788   0.01152
  78        7D+1        0.00000   0.00000  -0.00551   0.00000   0.00000
  79        7D-1        0.00000   0.00000   0.10937   0.00000   0.00000
  80        7D+2        0.03375   0.07752   0.00000   0.15539   0.07169
  81        7D-2       -0.04352  -0.01391   0.00000  -0.00146  -0.02278
  82 4   H  1S         -0.03232   0.00113  -0.01147  -0.02051  -0.00844
  83        2S         -0.04767   0.01742   0.14189   0.18499   0.06701
  84        3S         -1.07859  -0.29447  -0.34212  -1.10824  -0.50891
  85        4PX         0.00303  -0.00144  -0.00049   0.00221  -0.00096
  86        4PY        -0.00140  -0.01196   0.01484   0.02133   0.00747
  87        4PZ        -0.00855  -0.00634  -0.01224  -0.00271  -0.00082
  88 5   H  1S         -0.03232   0.00113   0.01147  -0.02051  -0.00844
  89        2S         -0.04767   0.01742  -0.14189   0.18499   0.06701
  90        3S         -1.07859  -0.29447   0.34212  -1.10824  -0.50891
  91        4PX         0.00303  -0.00144   0.00049   0.00221  -0.00096
  92        4PY        -0.00140  -0.01196  -0.01484   0.02133   0.00747
  93        4PZ         0.00855   0.00634  -0.01224   0.00271   0.00082
                          26        27        28        29        30
                           V         V         V         V         V
     Eigenvalues --     0.23169   0.25642   0.29855   0.38279   0.50610
   1 1   N  1S          0.00000   0.06854   0.00717   0.03207   0.00000
   2        2S          0.00000   0.11243   0.01433   0.05509   0.00000
   3        2PX         0.00000   0.00278  -0.00216  -0.00931   0.00000
   4        2PY         0.00000   0.01519  -0.02499  -0.10808   0.00000
   5        2PZ         0.04814   0.00000   0.00000   0.00000  -0.09904
   6        3S          0.00000  -0.24027  -0.13905  -0.21560   0.00000
   7        3PX         0.00000   0.00182  -0.00281  -0.01568   0.00000
   8        3PY         0.00000   0.03237  -0.05607  -0.22119   0.00000
   9        3PZ         0.07494   0.00000   0.00000   0.00000  -0.17247
  10        4S          0.00000  -3.63660   1.31227   0.93325   0.00000
  11        4PX         0.00000   0.03420  -0.10608  -0.23991   0.00000
  12        4PY         0.00000   0.30633  -1.39324  -3.52460   0.00000
  13        4PZ         0.25470   0.00000   0.00000   0.00000  -0.24786
  14        5S          0.00000   7.31158 -43.23271  28.58921   0.00000
  15        5PX         0.00000   0.15339  -1.30247   0.53226   0.00000
  16        5PY         0.00000   3.15853 -19.89309   8.26787   0.00000
  17        5PZ         1.30157   0.00000   0.00000   0.00000  -1.04675
  18        6D 0        0.00000  -0.01163  -0.00711  -0.00716   0.00000
  19        6D+1        0.00102   0.00000   0.00000   0.00000  -0.00352
  20        6D-1        0.00584   0.00000   0.00000   0.00000  -0.01579
  21        6D+2        0.00000  -0.01875  -0.01062  -0.01430   0.00000
  22        6D-2        0.00000   0.00234   0.00120   0.00185   0.00000
  23        7D 0        0.00000   0.06588  -0.11248  -0.07524   0.00000
  24        7D+1        0.00977   0.00000   0.00000   0.00000  -0.06460
  25        7D-1        0.02608   0.00000   0.00000   0.00000  -0.07680
  26        7D+2        0.00000   0.07973  -0.16216  -0.07702   0.00000
  27        7D-2        0.00000  -0.00744   0.02139   0.00582   0.00000
  28 2   N  1S          0.00000  -0.01165  -0.00044  -0.03465   0.00000
  29        2S          0.00000  -0.02287  -0.00046  -0.05574   0.00000
  30        2PX         0.00000  -0.00907  -0.00719  -0.00543   0.00000
  31        2PY         0.00000  -0.13531  -0.11720  -0.08269   0.00000
  32        2PZ        -0.07764   0.00000   0.00000   0.00000   0.03342
  33        3S          0.00000   0.10953  -0.00620   0.09681   0.00000
  34        3PX         0.00000  -0.01848  -0.00423  -0.01090   0.00000
  35        3PY         0.00000  -0.27781  -0.06557  -0.16232   0.00000
  36        3PZ        -0.09940   0.00000   0.00000   0.00000   0.03319
  37        4S          0.00000   0.28097   0.17181   2.92847   0.00000
  38        4PX         0.00000  -0.05499  -0.05282  -0.08486   0.00000
  39        4PY         0.00000  -0.74514  -0.90830  -1.39066   0.00000
  40        4PZ        -0.32855   0.00000   0.00000   0.00000   0.20982
  41        5S          0.00000  -5.03829  49.10165 -26.57212   0.00000
  42        5PX         0.00000   0.10682  -0.81796   0.51253   0.00000
  43        5PY         0.00000   1.14244 -12.46025   7.60474   0.00000
  44        5PZ         0.23695   0.00000   0.00000   0.00000   0.57061
  45        6D 0        0.00000   0.00484   0.00307   0.00930   0.00000
  46        6D+1       -0.00021   0.00000   0.00000   0.00000   0.00018
  47        6D-1       -0.00360   0.00000   0.00000   0.00000   0.00834
  48        6D+2        0.00000   0.00791   0.00552   0.01596   0.00000
  49        6D-2        0.00000  -0.00118  -0.00055  -0.00183   0.00000
  50        7D 0        0.00000  -0.01792  -0.00363  -0.00862   0.00000
  51        7D+1        0.00326   0.00000   0.00000   0.00000  -0.00918
  52        7D-1        0.00882   0.00000   0.00000   0.00000   0.06443
  53        7D+2        0.00000  -0.03688   0.00292  -0.02639   0.00000
  54        7D-2        0.00000   0.00674  -0.00131   0.00252   0.00000
  55 3   C  1S          0.00000  -0.03747   0.00567  -0.00482   0.00000
  56        2S          0.00000  -0.06684   0.01058  -0.00924   0.00000
  57        2PX         0.00000   0.00584   0.01043   0.00644   0.00000
  58        2PY         0.00000   0.11083   0.13254   0.10391   0.00000
  59        2PZ        -0.18295   0.00000   0.00000   0.00000   0.05592
  60        3S          0.00000   0.22027   0.02289   0.09146   0.00000
  61        3PX         0.00000   0.02141  -0.00576  -0.00035   0.00000
  62        3PY         0.00000   0.34241  -0.00203  -0.05023   0.00000
  63        3PZ        -0.19797   0.00000   0.00000   0.00000   0.25402
  64        4S          0.00000   1.80237  -3.50319  -4.38842   0.00000
  65        4PX         0.00000   0.07552  -0.00962  -0.19984   0.00000
  66        4PY         0.00000   1.75460  -0.93069  -3.86559   0.00000
  67        4PZ        -1.62396   0.00000   0.00000   0.00000   1.75777
  68        5S          0.00000  -1.87321  -3.01438  -1.55889   0.00000
  69        5PX         0.00000  -0.10535   0.05321  -0.05243   0.00000
  70        5PY         0.00000  -1.72753   0.45325   0.05436   0.00000
  71        5PZ        -2.41742   0.00000   0.00000   0.00000  -0.47844
  72        6D 0        0.00000   0.01243  -0.00371  -0.02464   0.00000
  73        6D+1        0.00186   0.00000   0.00000   0.00000  -0.00368
  74        6D-1       -0.01149   0.00000   0.00000   0.00000   0.02783
  75        6D+2        0.00000   0.01260   0.00260  -0.02476   0.00000
  76        6D-2        0.00000  -0.00165   0.00031   0.00424   0.00000
  77        7D 0        0.00000  -0.05185   0.06231   0.19654   0.00000
  78        7D+1        0.02093   0.00000   0.00000   0.00000  -0.25072
  79        7D-1       -0.00456   0.00000   0.00000   0.00000  -0.10641
  80        7D+2        0.00000  -0.08657   0.19069   0.33039   0.00000
  81        7D-2        0.00000   0.02231  -0.02330  -0.06178   0.00000
  82 4   H  1S          0.02750   0.00080  -0.00922  -0.03781  -0.08776
  83        2S          0.04167   0.09877   0.04622  -0.51518  -1.49666
  84        3S          3.01619   0.46578  -0.70835   0.72950   1.09793
  85        4PX         0.00533   0.00190   0.00068   0.00025  -0.01081
  86        4PY        -0.02094   0.03474  -0.00883  -0.04139   0.02081
  87        4PZ         0.02191   0.00308   0.00734   0.00559   0.07245
  88 5   H  1S         -0.02750   0.00080  -0.00922  -0.03781   0.08776
  89        2S         -0.04167   0.09877   0.04622  -0.51518   1.49666
  90        3S         -3.01619   0.46578  -0.70835   0.72950  -1.09793
  91        4PX        -0.00533   0.00190   0.00068   0.00025   0.01081
  92        4PY         0.02094   0.03474  -0.00883  -0.04139  -0.02081
  93        4PZ         0.02191  -0.00308  -0.00734  -0.00559   0.07245
                          31        32        33        34        35
                           V         V         V         V         V
     Eigenvalues --     0.51102   0.54991   0.56421   0.64413   0.66945
   1 1   N  1S         -0.00566  -0.00176   0.00000  -0.00365   0.00000
   2        2S         -0.00886  -0.00331   0.00000  -0.00390   0.00000
   3        2PX        -0.00766   0.03793   0.00000  -0.01222   0.00000
   4        2PY        -0.10549  -0.02577   0.00000  -0.19922   0.00000
   5        2PZ         0.00000   0.00000  -0.05163   0.00000  -0.00241
   6        3S          0.03854   0.02964   0.00000   0.11330   0.00000
   7        3PX        -0.01910   0.10180   0.00000  -0.02803   0.00000
   8        3PY        -0.18956  -0.05722   0.00000  -0.43334   0.00000
   9        3PZ         0.00000   0.00000  -0.12984   0.00000   0.05419
  10        4S          0.27033  -0.09261   0.00000  -6.32427   0.00000
  11        4PX        -0.10873  -0.31727   0.00000  -0.03774   0.00000
  12        4PY        -2.69054  -0.32396   0.00000  -0.57904   0.00000
  13        4PZ         0.00000   0.00000   0.02777   0.00000  -0.40116
  14        5S         -1.83034  -1.04295   0.00000 -14.81951   0.00000
  15        5PX        -0.26700  -0.81975   0.00000  -0.39424   0.00000
  16        5PY        -6.57109  -1.51829   0.00000  -6.53606   0.00000
  17        5PZ         0.00000   0.00000  -0.06114   0.00000  -2.13915
  18        6D 0       -0.00309  -0.00109   0.00000  -0.00349   0.00000
  19        6D+1        0.00000   0.00000   0.00860   0.00000   0.00407
  20        6D-1        0.00000   0.00000  -0.01179   0.00000  -0.00118
  21        6D+2       -0.00557  -0.00116   0.00000   0.00317   0.00000
  22        6D-2        0.00067   0.00682   0.00000  -0.00029   0.00000
  23        7D 0        0.04518   0.00812   0.00000   0.25578   0.00000
  24        7D+1        0.00000   0.00000   0.18041   0.00000   0.06959
  25        7D-1        0.00000   0.00000  -0.03916   0.00000   0.09507
  26        7D+2        0.02394   0.04127   0.00000   0.47520   0.00000
  27        7D-2       -0.01652   0.08803   0.00000  -0.06113   0.00000
  28 2   N  1S         -0.01035  -0.00194   0.00000  -0.01618   0.00000
  29        2S         -0.01598  -0.00331   0.00000  -0.02552   0.00000
  30        2PX         0.00502  -0.03456   0.00000   0.00019   0.00000
  31        2PY        -0.02682  -0.00340   0.00000   0.01387   0.00000
  32        2PZ         0.00000   0.00000   0.02087   0.00000   0.03444
  33        3S         -0.01831   0.00150   0.00000  -0.08089   0.00000
  34        3PX         0.01691  -0.09963   0.00000  -0.00441   0.00000
  35        3PY        -0.08392  -0.01628   0.00000  -0.03758   0.00000
  36        3PZ         0.00000   0.00000   0.02841   0.00000   0.07843
  37        4S          2.30107   0.36895   0.00000   3.49310   0.00000
  38        4PX        -0.12234   0.09335   0.00000  -0.20216   0.00000
  39        4PY        -1.37525  -0.25157   0.00000  -3.11234   0.00000
  40        4PZ         0.00000   0.00000   0.03378   0.00000  -0.03020
  41        5S          8.51426   2.37111   0.00000  15.63622   0.00000
  42        5PX        -0.23344   0.50650   0.00000  -0.20891   0.00000
  43        5PY        -1.16547  -0.44011   0.00000  -3.06477   0.00000
  44        5PZ         0.00000   0.00000   0.05694   0.00000   0.82612
  45        6D 0        0.00745   0.00117   0.00000   0.01839   0.00000
  46        6D+1        0.00000   0.00000   0.00101   0.00000   0.00032
  47        6D-1        0.00000   0.00000   0.00284   0.00000  -0.00053
  48        6D+2        0.01109   0.00199   0.00000   0.03067   0.00000
  49        6D-2       -0.00230   0.00070   0.00000  -0.00401   0.00000
  50        7D 0       -0.04383  -0.01291   0.00000  -0.10701   0.00000
  51        7D+1        0.00000   0.00000   0.06666   0.00000   0.02829
  52        7D-1        0.00000   0.00000   0.05672   0.00000   0.01297
  53        7D+2       -0.04399  -0.01146   0.00000  -0.16391   0.00000
  54        7D-2        0.00679  -0.03114   0.00000   0.02131   0.00000
  55 3   C  1S          0.04114   0.01152   0.00000   0.00408   0.00000
  56        2S          0.07257   0.02039   0.00000  -0.00036   0.00000
  57        2PX         0.04833  -0.23018   0.00000  -0.01162   0.00000
  58        2PY         0.06279   0.02984   0.00000  -0.22419   0.00000
  59        2PZ         0.00000   0.00000   0.08549   0.00000  -0.24824
  60        3S         -0.15047  -0.07452   0.00000   0.17194   0.00000
  61        3PX         0.16408  -0.86235   0.00000  -0.01715   0.00000
  62        3PY         0.15338   0.12238   0.00000  -0.14532   0.00000
  63        3PZ         0.00000   0.00000   0.30380   0.00000  -0.72842
  64        4S         -4.21149  -0.37235   0.00000   0.67236   0.00000
  65        4PX        -0.52935   1.75959   0.00000   0.14410   0.00000
  66        4PY        -2.33623  -0.51457   0.00000   3.24500   0.00000
  67        4PZ         0.00000   0.00000  -0.30382   0.00000   4.34243
  68        5S         -1.54545  -0.16738   0.00000  -0.61118   0.00000
  69        5PX         0.20112  -0.46179   0.00000  -0.02690   0.00000
  70        5PY        -1.04638  -0.22067   0.00000   0.03126   0.00000
  71        5PZ         0.00000   0.00000  -0.27881   0.00000   1.46860
  72        6D 0        0.00694   0.00201   0.00000  -0.01493   0.00000
  73        6D+1        0.00000   0.00000   0.00235   0.00000   0.00015
  74        6D-1        0.00000   0.00000   0.01304   0.00000  -0.00737
  75        6D+2       -0.03285  -0.01080   0.00000  -0.01808   0.00000
  76        6D-2        0.00510  -0.01252   0.00000   0.00178   0.00000
  77        7D 0        0.21361   0.03999   0.00000  -0.70291   0.00000
  78        7D+1        0.00000   0.00000   0.79132   0.00000   0.29479
  79        7D-1        0.00000   0.00000   0.14509   0.00000  -0.42878
  80        7D+2        0.02832  -0.01655   0.00000  -0.49891   0.00000
  81        7D-2        0.01980  -0.11630   0.00000   0.08404   0.00000
  82 4   H  1S          0.10499   0.03277  -0.04816  -0.01533   0.05345
  83        2S          1.20022   0.23657  -0.36871   0.37201  -0.74087
  84        3S         -2.95239  -0.81216   0.84987   0.43687  -2.84272
  85        4PX        -0.00374   0.00170   0.03307  -0.00482   0.01148
  86        4PY         0.00604  -0.00837   0.02783   0.03638  -0.03882
  87        4PZ         0.01091   0.00833   0.00351  -0.05817   0.11021
  88 5   H  1S          0.10499   0.03277   0.04816  -0.01533  -0.05345
  89        2S          1.20022   0.23657   0.36871   0.37201   0.74087
  90        3S         -2.95239  -0.81216  -0.84987   0.43687   2.84272
  91        4PX        -0.00374   0.00170  -0.03307  -0.00482  -0.01148
  92        4PY         0.00604  -0.00837  -0.02783   0.03638   0.03882
  93        4PZ        -0.01091  -0.00833   0.00351   0.05817   0.11021
                          36        37        38        39        40
                           V         V         V         V         V
     Eigenvalues --     0.75713   0.76439   0.77184   0.78006   0.79809
   1 1   N  1S          0.00755   0.00219   0.00000  -0.00119  -0.00356
   2        2S          0.01355   0.00592   0.00000  -0.00226  -0.00665
   3        2PX        -0.03882  -0.00770   0.00000  -0.10905  -0.09419
   4        2PY        -0.05856   0.13688   0.00000   0.00503   0.00300
   5        2PZ         0.00000   0.00000  -0.10405   0.00000   0.00000
   6        3S         -0.11570   0.00619   0.00000   0.01699   0.04626
   7        3PX        -0.11583  -0.04545   0.00000  -0.41809  -0.28321
   8        3PY        -0.11556   0.08489   0.00000   0.03261   0.03180
   9        3PZ         0.00000   0.00000  -0.39065   0.00000   0.00000
  10        4S          0.97420  -2.89701   0.00000   0.00404  -0.00811
  11        4PX         0.08760  -0.11472   0.00000   0.73685  -0.02062
  12        4PY         0.74208  -2.27878   0.00000  -0.01549  -0.12365
  13        4PZ         0.00000   0.00000   1.04390   0.00000   0.00000
  14        5S         -7.75736  -1.57307   0.00000   0.77277   1.55650
  15        5PX        -0.65858  -0.03562   0.00000  -0.72046  -0.95301
  16        5PY        -4.18373   2.13209   0.00000   0.28370   0.34823
  17        5PZ         0.00000   0.00000  -1.13285   0.00000   0.00000
  18        6D 0        0.01334   0.00961   0.00000  -0.00209  -0.00425
  19        6D+1        0.00000   0.00000   0.00222   0.00000   0.00000
  20        6D-1        0.00000   0.00000   0.01695   0.00000   0.00000
  21        6D+2       -0.00672   0.00291   0.00000   0.00034  -0.00460
  22        6D-2       -0.00843  -0.00476   0.00000  -0.00013  -0.04122
  23        7D 0        0.31795   0.31662   0.00000  -0.05952  -0.12797
  24        7D+1        0.00000   0.00000   0.00413   0.00000   0.00000
  25        7D-1        0.00000   0.00000  -0.27237   0.00000   0.00000
  26        7D+2       -0.35969   0.35092   0.00000   0.00532   0.09520
  27        7D-2        0.05894  -0.04181   0.00000  -0.21734   0.14980
  28 2   N  1S         -0.00117  -0.01031   0.00000   0.00055   0.00104
  29        2S         -0.00039  -0.01996   0.00000   0.00088   0.00168
  30        2PX        -0.00185   0.01672   0.00000  -0.20403   0.11801
  31        2PY        -0.07148   0.21236   0.00000   0.01026  -0.01090
  32        2PZ         0.00000   0.00000  -0.21436   0.00000   0.00000
  33        3S         -0.01706   0.03758   0.00000  -0.00005  -0.00287
  34        3PX        -0.02965   0.02036   0.00000  -0.70899   0.26577
  35        3PY        -0.07267   0.39381   0.00000   0.03272  -0.04314
  36        3PZ         0.00000   0.00000  -0.69286   0.00000   0.00000
  37        4S         -0.85758   3.23052   0.00000  -0.04774   0.05558
  38        4PX         0.11427  -0.18060   0.00000   1.39676  -0.47864
  39        4PY         0.60069  -3.06319   0.00000  -0.02064   0.08312
  40        4PZ         0.00000   0.00000   1.26560   0.00000   0.00000
  41        5S          9.05622  -1.79440   0.00000  -0.68257  -1.12448
  42        5PX        -0.02365   0.10546   0.00000  -0.50741   0.66526
  43        5PY        -2.23534   0.78624   0.00000   0.19416   0.24528
  44        5PZ         0.00000   0.00000  -0.36710   0.00000   0.00000
  45        6D 0        0.00405   0.00941   0.00000  -0.00097  -0.00197
  46        6D+1        0.00000   0.00000   0.00099   0.00000   0.00000
  47        6D-1        0.00000   0.00000   0.01263   0.00000   0.00000
  48        6D+2        0.00007   0.01480   0.00000   0.00170  -0.00049
  49        6D-2        0.00263  -0.00094   0.00000   0.01697   0.00180
  50        7D 0        0.29980  -0.09527   0.00000  -0.03971  -0.09844
  51        7D+1        0.00000   0.00000   0.01221   0.00000   0.00000
  52        7D-1        0.00000   0.00000  -0.03837   0.00000   0.00000
  53        7D+2       -0.02817  -0.31272   0.00000   0.03425   0.08858
  54        7D-2        0.07488   0.07343   0.00000   0.06406   0.28794
  55 3   C  1S         -0.01928   0.04005   0.00000   0.00132  -0.00024
  56        2S         -0.03877   0.07868   0.00000   0.00256  -0.00029
  57        2PX        -0.02154  -0.00314   0.00000   0.00667  -0.07040
  58        2PY        -0.06212   0.07289   0.00000   0.00327   0.00496
  59        2PZ         0.00000   0.00000  -0.02370   0.00000   0.00000
  60        3S          0.18086  -0.84945   0.00000   0.00867   0.06113
  61        3PX        -0.08959   0.01351   0.00000  -0.08274  -0.20726
  62        3PY        -0.37120   0.18649   0.00000   0.04519   0.07754
  63        3PZ         0.00000   0.00000  -0.04705   0.00000   0.00000
  64        4S          0.63592   2.96157   0.00000  -0.17478  -0.67276
  65        4PX         0.34892   0.10535   0.00000  -0.16811   0.75941
  66        4PY        -0.23574  -0.72630   0.00000   0.05440  -0.04970
  67        4PZ         0.00000   0.00000   0.50210   0.00000   0.00000
  68        5S         -0.70116   2.10697   0.00000  -0.02492  -0.18677
  69        5PX         0.10481   0.10855   0.00000   0.49091   0.17593
  70        5PY         0.05287   0.67028   0.00000  -0.08469  -0.13910
  71        5PZ         0.00000   0.00000   0.82922   0.00000   0.00000
  72        6D 0       -0.00083   0.00775   0.00000  -0.00003  -0.00127
  73        6D+1        0.00000   0.00000   0.00093   0.00000   0.00000
  74        6D-1        0.00000   0.00000  -0.00574   0.00000   0.00000
  75        6D+2        0.00239   0.00498   0.00000  -0.00105  -0.00130
  76        6D-2        0.00266   0.00088   0.00000   0.00066   0.01381
  77        7D 0        0.66726   0.52423   0.00000  -0.08573  -0.15012
  78        7D+1        0.00000   0.00000   0.01948   0.00000   0.00000
  79        7D-1        0.00000   0.00000  -0.69613   0.00000   0.00000
  80        7D+2       -0.40343   0.12397   0.00000   0.02606   0.18992
  81        7D-2        0.24727   0.05673   0.00000  -0.02852   1.01404
  82 4   H  1S         -0.03270   0.01535   0.01808   0.00463   0.00330
  83        2S         -0.98723  -0.74349  -0.42771   0.15320   0.32222
  84        3S         -0.20100  -0.21574  -0.53410  -0.02871  -0.04343
  85        4PX        -0.00499   0.00636   0.00497  -0.01780  -0.03779
  86        4PY        -0.01589  -0.04985  -0.00581   0.00718   0.01698
  87        4PZ         0.02155   0.09514   0.05598  -0.00338  -0.01091
  88 5   H  1S         -0.03270   0.01535  -0.01808   0.00463   0.00330
  89        2S         -0.98723  -0.74349   0.42771   0.15320   0.32222
  90        3S         -0.20100  -0.21574   0.53410  -0.02871  -0.04343
  91        4PX        -0.00499   0.00636  -0.00497  -0.01780  -0.03779
  92        4PY        -0.01589  -0.04985   0.00581   0.00718   0.01698
  93        4PZ        -0.02155  -0.09514   0.05598   0.00338   0.01091
                          41        42        43        44        45
                           V         V         V         V         V
     Eigenvalues --     0.86188   0.86706   0.86931   0.87515   0.96496
   1 1   N  1S          0.00000  -0.03444   0.00000  -0.00266  -0.03163
   2        2S          0.00000  -0.06306   0.00000  -0.00482  -0.06399
   3        2PX         0.00000   0.03171   0.00000  -0.19801  -0.00614
   4        2PY         0.00000   0.18004   0.00000   0.02772   0.02129
   5        2PZ        -0.16345   0.00000  -0.08208   0.00000   0.00000
   6        3S          0.00000   0.35692   0.00000   0.02454   0.62087
   7        3PX         0.00000   0.08584   0.00000  -0.71302  -0.03045
   8        3PY         0.00000   0.29427   0.00000   0.07223   0.02162
   9        3PZ        -0.55042   0.00000  -0.30144   0.00000   0.00000
  10        4S          0.00000  -1.06381   0.00000  -0.07255  -3.63466
  11        4PX         0.00000  -0.68351   0.00000   2.36327   0.05308
  12        4PY         0.00000  -7.10626   0.00000  -0.73768   0.14812
  13        4PZ         2.14385   0.00000   0.88105   0.00000   0.00000
  14        5S          0.00000  -6.01671   0.00000  -0.56003   6.98263
  15        5PX         0.00000  -0.56222   0.00000  -1.93346   0.11023
  16        5PY         0.00000 -11.08728   0.00000  -0.79550   2.04988
  17        5PZ        -1.42737   0.00000  -0.65328   0.00000   0.00000
  18        6D 0        0.00000  -0.00405   0.00000  -0.00031  -0.01186
  19        6D+1        0.00429   0.00000  -0.00824   0.00000   0.00000
  20        6D-1        0.01987   0.00000   0.00011   0.00000   0.00000
  21        6D+2        0.00000  -0.00164   0.00000   0.00230  -0.01862
  22        6D-2        0.00000  -0.00002   0.00000   0.01710  -0.00102
  23        7D 0        0.00000   0.00773   0.00000  -0.00234   0.38151
  24        7D+1        0.18663   0.00000  -0.54586   0.00000   0.00000
  25        7D-1        0.06263   0.00000   0.10175   0.00000   0.00000
  26        7D+2        0.00000  -0.00703   0.00000   0.01078   0.14201
  27        7D-2        0.00000  -0.00476   0.00000   0.13713  -0.01129
  28 2   N  1S          0.00000  -0.00323   0.00000  -0.00053   0.00435
  29        2S          0.00000  -0.00478   0.00000  -0.00084   0.00399
  30        2PX         0.00000   0.00134   0.00000   0.06377   0.00708
  31        2PY         0.00000   0.17177   0.00000   0.00909   0.04037
  32        2PZ         0.09250   0.00000   0.03485   0.00000   0.00000
  33        3S          0.00000  -0.06474   0.00000  -0.00272   0.00150
  34        3PX         0.00000  -0.02004   0.00000   0.26831  -0.00237
  35        3PY         0.00000   0.24465   0.00000   0.00406  -0.12546
  36        3PZ         0.38690   0.00000   0.11882   0.00000   0.00000
  37        4S          0.00000   5.47625   0.00000   0.43093   1.02001
  38        4PX         0.00000  -0.10241   0.00000  -1.34018  -0.05981
  39        4PY         0.00000  -3.65362   0.00000  -0.20432  -0.61465
  40        4PZ        -1.47605   0.00000  -0.51846   0.00000   0.00000
  41        5S          0.00000  17.82389   0.00000   1.51750  -5.68853
  42        5PX         0.00000  -0.31904   0.00000   1.12550   0.10349
  43        5PY         0.00000  -3.24305   0.00000  -0.35930   1.51129
  44        5PZ         1.14917   0.00000   0.42682   0.00000   0.00000
  45        6D 0        0.00000   0.00248   0.00000   0.00024   0.00104
  46        6D+1        0.00074   0.00000  -0.00743   0.00000   0.00000
  47        6D-1       -0.02240   0.00000  -0.00624   0.00000   0.00000
  48        6D+2        0.00000   0.00378   0.00000  -0.00243  -0.01190
  49        6D-2        0.00000   0.00125   0.00000  -0.02108   0.00214
  50        7D 0        0.00000  -0.27317   0.00000  -0.01993   0.46296
  51        7D+1        0.17747   0.00000  -0.57805   0.00000   0.00000
  52        7D-1       -0.17039   0.00000   0.04680   0.00000   0.00000
  53        7D+2        0.00000  -0.37779   0.00000  -0.04626  -0.51029
  54        7D-2        0.00000   0.05159   0.00000  -0.11508   0.09838
  55 3   C  1S          0.00000  -0.08634   0.00000  -0.00756   0.00506
  56        2S          0.00000  -0.17143   0.00000  -0.01503   0.00399
  57        2PX         0.00000  -0.00166   0.00000   0.00657  -0.00569
  58        2PY         0.00000   0.02245   0.00000   0.00179   0.03433
  59        2PZ         0.03928   0.00000  -0.00551   0.00000   0.00000
  60        3S          0.00000   1.48286   0.00000   0.12757   0.20352
  61        3PX         0.00000  -0.06806   0.00000  -0.04603   0.00129
  62        3PY         0.00000  -0.38099   0.00000  -0.04114   0.62999
  63        3PZ         0.28158   0.00000  -0.04776   0.00000   0.00000
  64        4S          0.00000 -11.88930   0.00000  -0.99945  -0.09939
  65        4PX         0.00000  -0.14507   0.00000  -0.51518  -0.03340
  66        4PY         0.00000  -3.11076   0.00000  -0.20133   1.24253
  67        4PZ        -0.56524   0.00000  -0.43478   0.00000   0.00000
  68        5S          0.00000  -5.76144   0.00000  -0.49087  -0.59846
  69        5PX         0.00000  -0.12687   0.00000   0.63722  -0.01277
  70        5PY         0.00000  -1.27776   0.00000  -0.13996  -0.67624
  71        5PZ         0.11056   0.00000   0.18103   0.00000   0.00000
  72        6D 0        0.00000   0.00416   0.00000   0.00070  -0.02109
  73        6D+1       -0.00068   0.00000   0.00272   0.00000   0.00000
  74        6D-1       -0.00159   0.00000   0.00073   0.00000   0.00000
  75        6D+2        0.00000  -0.00351   0.00000  -0.00012  -0.02229
  76        6D-2        0.00000  -0.00044   0.00000  -0.00427   0.00408
  77        7D 0        0.00000   0.03929   0.00000  -0.00317  -1.05517
  78        7D+1       -0.11993   0.00000   0.27480   0.00000   0.00000
  79        7D-1       -0.78717   0.00000   0.04613   0.00000   0.00000
  80        7D+2        0.00000   0.32093   0.00000  -0.03970   0.22075
  81        7D-2        0.00000   0.00488   0.00000  -0.48597   0.09606
  82 4   H  1S         -0.00209  -0.01851   0.00167  -0.00076   0.00821
  83        2S         -0.61148   0.64406   0.17311   0.03928   1.25325
  84        3S          0.74174  -0.49043   0.14094  -0.00184  -0.14760
  85        4PX        -0.01925  -0.00649   0.07149  -0.00489   0.00369
  86        4PY        -0.00749   0.08303   0.01485   0.00908   0.03114
  87        4PZ         0.05189  -0.09050  -0.00626  -0.00557  -0.06177
  88 5   H  1S          0.00209  -0.01851  -0.00167  -0.00076   0.00821
  89        2S          0.61148   0.64406  -0.17311   0.03928   1.25325
  90        3S         -0.74174  -0.49043  -0.14094  -0.00184  -0.14760
  91        4PX         0.01925  -0.00649  -0.07149  -0.00489   0.00369
  92        4PY         0.00749   0.08303  -0.01485   0.00908   0.03114
  93        4PZ         0.05189   0.09050  -0.00626   0.00557   0.06177
                          46        47        48        49        50
                           V         V         V         V         V
     Eigenvalues --     0.98814   1.00590   1.14300   1.23917   1.25405
   1 1   N  1S          0.04574   0.00000   0.06052   0.00000  -0.04244
   2        2S          0.09473   0.00000   0.12957   0.00000  -0.08805
   3        2PX         0.00414   0.00000  -0.00517   0.00000  -0.00437
   4        2PY         0.08237   0.00000  -0.06862   0.00000  -0.07252
   5        2PZ         0.00000   0.10423   0.00000  -0.00817   0.00000
   6        3S         -0.90203   0.00000  -1.58573   0.00000   0.81846
   7        3PX        -0.01535   0.00000   0.00476   0.00000  -0.00645
   8        3PY        -0.13544   0.00000   0.15719   0.00000  -0.10493
   9        3PZ         0.00000   0.50520   0.00000  -0.04263   0.00000
  10        4S          6.44814   0.00000  12.17288   0.00000   0.12412
  11        4PX        -0.00844   0.00000  -0.15597   0.00000  -0.67229
  12        4PY        -0.18005   0.00000  -2.72790   0.00000  -9.60285
  13        4PZ         0.00000  -0.92917   0.00000   0.16833   0.00000
  14        5S         -1.62694   0.00000 -16.21930   0.00000  16.36728
  15        5PX        -0.17496   0.00000  -0.58763   0.00000   0.19671
  16        5PY        -2.48097   0.00000  -8.90221   0.00000   3.03842
  17        5PZ         0.00000  -0.12493   0.00000   0.10844   0.00000
  18        6D 0        0.01482   0.00000   0.02720   0.00000   0.00030
  19        6D+1        0.00000   0.00401   0.00000   0.01031   0.00000
  20        6D-1        0.00000   0.03334   0.00000  -0.00486   0.00000
  21        6D+2        0.02771   0.00000   0.05166   0.00000   0.00477
  22        6D-2       -0.00430   0.00000  -0.00811   0.00000   0.00036
  23        7D 0       -0.09590   0.00000  -0.74922   0.00000   0.00555
  24        7D+1        0.00000  -0.04313   0.00000   0.80225   0.00000
  25        7D-1        0.00000  -0.16229   0.00000  -0.08126   0.00000
  26        7D+2       -0.19891   0.00000  -0.94398   0.00000   0.39224
  27        7D-2        0.03258   0.00000   0.12155   0.00000  -0.03029
  28 2   N  1S          0.07979   0.00000  -0.06774   0.00000   0.02580
  29        2S          0.16227   0.00000  -0.12535   0.00000   0.05308
  30        2PX         0.00298   0.00000  -0.00357   0.00000  -0.00956
  31        2PY         0.04060   0.00000  -0.08035   0.00000  -0.09490
  32        2PZ         0.00000  -0.04170   0.00000   0.00843   0.00000
  33        3S         -1.20374   0.00000   0.96093   0.00000  -0.56792
  34        3PX         0.01503   0.00000   0.03572   0.00000  -0.05424
  35        3PY         0.24931   0.00000   0.50442   0.00000  -0.66817
  36        3PZ         0.00000  -0.05223   0.00000   0.02226   0.00000
  37        4S          0.15349   0.00000  -4.08064   0.00000   8.70962
  38        4PX         0.04819   0.00000   0.10796   0.00000  -0.17434
  39        4PY         0.75474   0.00000   1.78152   0.00000  -3.01361
  40        4PZ         0.00000   0.39763   0.00000  -0.07306   0.00000
  41        5S          1.37390   0.00000  20.25264   0.00000 -13.39631
  42        5PX         0.00724   0.00000  -0.33976   0.00000   0.25138
  43        5PY         0.08015   0.00000  -5.09988   0.00000   3.86759
  44        5PZ         0.00000   0.06895   0.00000  -0.04241   0.00000
  45        6D 0        0.00767   0.00000   0.01364   0.00000   0.00109
  46        6D+1        0.00000  -0.00223   0.00000  -0.00534   0.00000
  47        6D-1        0.00000  -0.00292   0.00000   0.00222   0.00000
  48        6D+2        0.01330   0.00000   0.01546   0.00000  -0.00005
  49        6D-2       -0.00170   0.00000  -0.00154   0.00000  -0.00079
  50        7D 0        0.25774   0.00000   0.52596   0.00000   0.10320
  51        7D+1        0.00000  -0.21600   0.00000  -0.79739   0.00000
  52        7D-1        0.00000  -0.27937   0.00000   0.09653   0.00000
  53        7D+2        0.23089   0.00000   0.24173   0.00000  -0.18012
  54        7D-2       -0.02369   0.00000  -0.01123   0.00000   0.00506
  55 3   C  1S         -0.05191   0.00000   0.00392   0.00000   0.03683
  56        2S         -0.10195   0.00000   0.03123   0.00000   0.06878
  57        2PX         0.00225   0.00000  -0.01241   0.00000  -0.01584
  58        2PY         0.09782   0.00000  -0.04937   0.00000  -0.24494
  59        2PZ         0.00000   0.07210   0.00000  -0.01320   0.00000
  60        3S          1.05449   0.00000  -0.23645   0.00000  -0.40278
  61        3PX        -0.02743   0.00000  -0.11189   0.00000  -0.04768
  62        3PY        -0.10538   0.00000  -1.41620   0.00000  -0.86456
  63        3PZ         0.00000   0.73860   0.00000  -0.06768   0.00000
  64        4S         -5.37021   0.00000  -9.44543   0.00000  -9.07414
  65        4PX        -0.16714   0.00000  -0.26232   0.00000  -0.28862
  66        4PY        -2.55417   0.00000  -3.59283   0.00000  -5.01080
  67        4PZ         0.00000   3.01066   0.00000  -0.52945   0.00000
  68        5S          0.45603   0.00000  -1.44300   0.00000  -1.27881
  69        5PX         0.06773   0.00000   0.04436   0.00000  -0.01086
  70        5PY         0.76798   0.00000   0.13403   0.00000  -0.16763
  71        5PZ         0.00000  -0.27097   0.00000  -0.01017   0.00000
  72        6D 0        0.02037   0.00000   0.05182   0.00000  -0.00165
  73        6D+1        0.00000   0.00400   0.00000  -0.00935   0.00000
  74        6D-1        0.00000  -0.01292   0.00000   0.00456   0.00000
  75        6D+2        0.02375   0.00000   0.06394   0.00000  -0.02298
  76        6D-2       -0.00342   0.00000  -0.00975   0.00000   0.00106
  77        7D 0        0.28206   0.00000   0.29333   0.00000   0.74008
  78        7D+1        0.00000   0.24396   0.00000  -0.14409   0.00000
  79        7D-1        0.00000  -1.90793   0.00000   0.17674   0.00000
  80        7D+2        0.86938   0.00000   0.98562   0.00000   1.11935
[...]
  72        6D 0        0.00000   0.00000   0.00000   0.00000   0.00000
  73        6D+1        0.00000   0.00000   0.00000   0.00000   0.00000
  74        6D-1        0.00000   0.00000   0.00000   0.00000   0.00000
  75        6D+2        0.00000   0.00000   0.00000   0.00000   0.00000
  76        6D-2        0.00000   0.00000   0.00000   0.00000   0.00000
  77        7D 0        0.00000   0.00000   0.00000   0.00000   0.00000
  78        7D+1        0.00000   0.00000   0.00000   0.00000   0.00000
  79        7D-1        0.00000   0.00000   0.00000   0.00000   0.00000
  80        7D+2        0.00000   0.00000   0.00000   0.00000   0.00000
  81        7D-2        0.00000   0.00000   0.00000   0.00000   0.00000
  82 4   H  1S          0.00008   0.00919   0.02910   0.01996   0.00006
  83        2S          0.00019   0.01627   0.05665   0.05728   0.00023
  84        3S         -0.00004   0.00139   0.00626   0.00764  -0.00007
  85        4PX         0.00349   0.00001   0.00003   0.00003   0.00351
  86        4PY         0.00001  -0.00010   0.00247   0.00051   0.00000
  87        4PZ         0.00003   0.00223   0.00198   0.00233   0.00001
  88 5   H  1S          0.00008   0.00919   0.02910   0.01996   0.00006
  89        2S          0.00019   0.01627   0.05665   0.05728   0.00023
  90        3S         -0.00004   0.00139   0.00626   0.00764  -0.00007
  91        4PX         0.00349   0.00001   0.00003   0.00003   0.00351
  92        4PY         0.00001  -0.00010   0.00247   0.00051   0.00000
  93        4PZ         0.00003   0.00223   0.00198   0.00233   0.00001
                          66        67        68        69        70
  66        4PY         0.02059
  67        4PZ         0.00000   0.05721
  68        5S          0.00000   0.00000   0.00535
  69        5PX         0.00000   0.00000   0.00000   0.00930
  70        5PY         0.00091   0.00000   0.00000   0.00000   0.00071
  71        5PZ         0.00000   0.00545   0.00000   0.00000   0.00000
  72        6D 0        0.00000   0.00000   0.00000   0.00000   0.00000
  73        6D+1        0.00000   0.00000   0.00000   0.00000   0.00000
  74        6D-1        0.00000   0.00000   0.00000   0.00000   0.00000
  75        6D+2        0.00000   0.00000   0.00000   0.00000   0.00000
  76        6D-2        0.00000   0.00000   0.00000   0.00000   0.00000
  77        7D 0        0.00000   0.00000   0.00000   0.00000   0.00000
  78        7D+1        0.00000   0.00000   0.00000   0.00000   0.00000
  79        7D-1        0.00000   0.00000   0.00000   0.00000   0.00000
  80        7D+2        0.00000   0.00000   0.00000   0.00000   0.00000
  81        7D-2        0.00000   0.00000   0.00000   0.00000   0.00000
  82 4   H  1S          0.00399   0.01646   0.00160   0.00001   0.00006
  83        2S          0.00943   0.04268   0.00533   0.00003   0.00018
  84        3S          0.00115   0.00911   0.00065  -0.00001   0.00009
  85        4PX         0.00000   0.00001   0.00000   0.00031   0.00000
  86        4PY        -0.00014   0.00064   0.00002   0.00000   0.00001
  87        4PZ         0.00043  -0.00036   0.00007   0.00000   0.00000
  88 5   H  1S          0.00399   0.01646   0.00160   0.00001   0.00006
  89        2S          0.00943   0.04268   0.00533   0.00003   0.00018
  90        3S          0.00115   0.00911   0.00065  -0.00001   0.00009
  91        4PX         0.00000   0.00001   0.00000   0.00031   0.00000
  92        4PY        -0.00014   0.00064   0.00002   0.00000   0.00001
  93        4PZ         0.00043  -0.00036   0.00007   0.00000   0.00000
                          71        72        73        74        75
  71        5PZ         0.00123
  72        6D 0        0.00000   0.00051
  73        6D+1        0.00000   0.00000   0.00001
  74        6D-1        0.00000   0.00000   0.00000   0.00049
  75        6D+2        0.00000   0.00000   0.00000   0.00000   0.00068
  76        6D-2        0.00000   0.00000   0.00000   0.00000   0.00000
  77        7D 0        0.00000   0.00010   0.00000   0.00000   0.00000
  78        7D+1        0.00000   0.00000   0.00000   0.00000   0.00000
  79        7D-1        0.00000   0.00000   0.00000   0.00052   0.00000
  80        7D+2        0.00000   0.00000   0.00000   0.00000   0.00022
  81        7D-2        0.00000   0.00000   0.00000   0.00000   0.00000
  82 4   H  1S          0.00093   0.00043   0.00001   0.00049  -0.00002
  83        2S          0.00332   0.00036   0.00001   0.00042  -0.00002
  84        3S          0.00120   0.00001   0.00000   0.00003   0.00000
  85        4PX         0.00000   0.00000   0.00000   0.00000   0.00000
  86        4PY         0.00001   0.00002   0.00000   0.00000  -0.00001
  87        4PZ        -0.00007   0.00002   0.00000   0.00004  -0.00001
  88 5   H  1S          0.00093   0.00043   0.00001   0.00049  -0.00002
  89        2S          0.00332   0.00036   0.00001   0.00042  -0.00002
  90        3S          0.00120   0.00001   0.00000   0.00003   0.00000
  91        4PX         0.00000   0.00000   0.00000   0.00000   0.00000
  92        4PY         0.00001   0.00002   0.00000   0.00000  -0.00001
  93        4PZ        -0.00007   0.00002   0.00000   0.00004  -0.00001
                          76        77        78        79        80
  76        6D-2        0.00044
  77        7D 0        0.00000   0.00022
  78        7D+1        0.00000   0.00000   0.00001
  79        7D-1        0.00000   0.00000   0.00000   0.00468
  80        7D+2        0.00000   0.00000   0.00000   0.00000   0.00041
  81        7D-2        0.00030   0.00000   0.00000   0.00000   0.00000
  82 4   H  1S          0.00000   0.00020   0.00002  -0.00014   0.00002
  83        2S          0.00000   0.00023   0.00003  -0.00050   0.00000
  84        3S          0.00000   0.00002   0.00000   0.00021  -0.00001
  85        4PX        -0.00004   0.00000   0.00000   0.00000   0.00000
  86        4PY         0.00000  -0.00001   0.00000  -0.00003  -0.00002
  87        4PZ         0.00000  -0.00002   0.00000  -0.00004   0.00000
  88 5   H  1S          0.00000   0.00020   0.00002  -0.00014   0.00002
  89        2S          0.00000   0.00023   0.00003  -0.00050   0.00000
  90        3S          0.00000   0.00002   0.00000   0.00021  -0.00001
  91        4PX        -0.00004   0.00000   0.00000   0.00000   0.00000
  92        4PY         0.00000  -0.00001   0.00000  -0.00003  -0.00002
  93        4PZ         0.00000  -0.00002   0.00000  -0.00004   0.00000
                          81        82        83        84        85
  81        7D-2        0.00122
  82 4   H  1S          0.00001   0.07877
  83        2S          0.00001   0.08182   0.17165
  84        3S          0.00000   0.00890   0.02800   0.01067
  85        4PX        -0.00007   0.00000   0.00000   0.00000   0.00074
  86        4PY         0.00000   0.00000   0.00000   0.00000   0.00000
  87        4PZ         0.00000   0.00000   0.00000   0.00000   0.00000
  88 5   H  1S          0.00001  -0.00001  -0.00074  -0.00157   0.00000
  89        2S          0.00001  -0.00074  -0.00644  -0.00639   0.00000
  90        3S          0.00000  -0.00157  -0.00639  -0.00437   0.00000
  91        4PX        -0.00007   0.00000   0.00000   0.00000   0.00001
  92        4PY         0.00000   0.00000   0.00000   0.00000   0.00000
  93        4PZ         0.00000   0.00001   0.00006  -0.00010   0.00000
                          86        87        88        89        90
  86        4PY         0.00063
  87        4PZ         0.00000   0.00142
  88 5   H  1S          0.00000   0.00001   0.07877
  89        2S          0.00000   0.00006   0.08182   0.17165
  90        3S          0.00000  -0.00010   0.00890   0.02800   0.01067
  91        4PX         0.00000   0.00000   0.00000   0.00000   0.00000
  92        4PY         0.00000   0.00000   0.00000   0.00000   0.00000
  93        4PZ         0.00000   0.00004   0.00000   0.00000   0.00000
                          91        92        93
  91        4PX         0.00074
  92        4PY         0.00000   0.00063
  93        4PZ         0.00000   0.00000   0.00142
     Gross orbital populations:
                           1
   1 1   N  1S          1.09522
   2        2S          0.89615
   3        2PX         0.24437
   4        2PY         0.28012
   5        2PZ         0.24091
   6        3S          0.90190
   7        3PX         0.57285
   8        3PY         0.62137
   9        3PZ         0.55510
  10        4S          0.46624
  11        4PX         0.37914
  12        4PY         0.04645
  13        4PZ         0.35455
  14        5S         -0.09521
  15        5PX        -0.00875
  16        5PY        -0.01061
  17        5PZ         0.00890
  18        6D 0        0.00080
  19        6D+1        0.00001
  20        6D-1        0.00210
  21        6D+2        0.00261
  22        6D-2        0.00513
  23        7D 0        0.00128
  24        7D+1        0.00011
  25        7D-1        0.03637
  26        7D+2        0.00671
  27        7D-2        0.08581
  28 2   N  1S          1.09588
  29        2S          0.89539
  30        2PX         0.28988
  31        2PY         0.24650
  32        2PZ         0.15503
  33        3S          0.97912
  34        3PX         0.62333
  35        3PY         0.54422
  36        3PZ         0.36571
  37        4S          0.96446
  38        4PX         0.46311
  39        4PY         0.20060
  40        4PZ         0.27383
  41        5S         -0.04276
  42        5PX         0.02994
  43        5PY         0.05350
  44        5PZ         0.00384
  45        6D 0        0.00138
  46        6D+1        0.00001
  47        6D-1        0.00241
  48        6D+2        0.00413
  49        6D-2        0.00211
  50        7D 0        0.00344
  51        7D+1        0.00010
  52        7D-1        0.02344
  53        7D+2        0.01027
  54        7D-2        0.02202
  55 3   C  1S          1.10353
  56        2S          0.88511
  57        2PX         0.22671
  58        2PY         0.20026
  59        2PZ         0.23284
  60        3S          0.72910
  61        3PX         0.52357
  62        3PY         0.43869
  63        3PZ         0.50958
  64        4S          0.49106
  65        4PX         0.44993
  66        4PY         0.12675
  67        4PZ         0.25423
  68        5S          0.06264
  69        5PX         0.04072
  70        5PY         0.01460
  71        5PZ         0.01854
  72        6D 0        0.00419
  73        6D+1        0.00006
  74        6D-1        0.00460
  75        6D+2        0.00538
  76        6D-2        0.00315
  77        7D 0        0.00418
  78        7D+1        0.00020
  79        7D-1        0.03624
  80        7D+2        0.00677
  81        7D-2        0.01747
  82 4   H  1S          0.26965
  83        2S          0.50288
  84        3S          0.05275
  85        4PX         0.00916
  86        4PY         0.00613
  87        4PZ         0.01412
  88 5   H  1S          0.26965
  89        2S          0.50288
  90        3S          0.05275
  91        4PX         0.00916
  92        4PY         0.00613
  93        4PZ         0.01412
          Condensed to atoms (all electrons):
               1          2          3          4          5
     1  N    5.561698   0.684181   0.497918  -0.027082  -0.027082
     2  N    0.684181   6.636439  -0.081709  -0.014014  -0.014014
     3  C    0.497918  -0.081709   5.128583   0.422660   0.422660
     4  H   -0.027082  -0.014014   0.422660   0.501331  -0.028210
     5  H   -0.027082  -0.014014   0.422660  -0.028210   0.501331
 Mulliken charges:
               1
     1  N    0.310367
     2  N   -0.210884
     3  C   -0.390113
     4  H    0.145315
     5  H    0.145315
 Sum of Mulliken charges =   0.00000
 Mulliken charges with hydrogens summed into heavy atoms:
               1
     1  N    0.310367
     2  N   -0.210884
     3  C   -0.099484
 Electronic spatial extent (au):  <R**2>=            140.0041
 Charge=              0.0000 electrons
 Dipole moment (field-independent basis, Debye):
    X=              0.0653    Y=             -2.1753    Z=              0.0000  Tot=              2.1763
 Quadrupole moment (field-independent basis, Debye-Ang):
   XX=            -19.4036   YY=            -18.3513   ZZ=            -15.7898
   XY=             -0.3121   XZ=              0.0000   YZ=              0.0000
 Traceless Quadrupole moment (field-independent basis, Debye-Ang):
   XX=             -1.5554   YY=             -0.5031   ZZ=              2.0584
   XY=             -0.3121   XZ=              0.0000   YZ=              0.0000
 Octapole moment (field-independent basis, Debye-Ang**2):
  XXX=              0.4977  YYY=             -7.5546  ZZZ=              0.0000  XYY=              0.1543
  XXY=              1.3118  XXZ=              0.0000  XZZ=              0.1492  YZZ=             -1.7025
  YYZ=              0.0000  XYZ=              0.0000
 Hexadecapole moment (field-independent basis, Debye-Ang**3):
 XXXX=            -21.7303 YYYY=           -146.7252 ZZZZ=            -20.8800 XXXY=             -4.5038
 XXXZ=              0.0000 YYYX=             -4.1500 YYYZ=              0.0000 ZZZX=              0.0000
 ZZZY=              0.0000 XXYY=            -31.9432 XXZZ=             -7.5168 YYZZ=            -23.4409
 XXYZ=              0.0000 YYXZ=              0.0000 ZZXY=             -1.2828
 N-N= 5.984187387986D+01 E-N=-4.661836240745D+02  KE= 1.478484343746D+02
 Symmetry A'   KE= 1.423915072805D+02
 Symmetry A"   KE= 5.456927094110D+00
 Orbital energies and kinetic energies (alpha):
                                 1                 2
   1         O               -14.498104         22.065029
   2         O               -14.431401         22.071140
   3         O               -10.243508         15.961945
   4         O                -1.089945          2.327399
   5         O                -0.869711          2.059920
   6         O                -0.590363          1.499714
   7         O                -0.528427          1.242174
   8         O                -0.474357          1.580946
   9         O                -0.462734          2.131173
  10         O                -0.395012          1.486289
  11         O                -0.243795          1.498488
  12         V                -0.073322          1.934952
  13         V                -0.009464          1.567894
  14         V                 0.011448          0.307895
  15         V                 0.050498          0.231060
  16         V                 0.050820          0.262595
  17         V                 0.080347          0.644567
  18         V                 0.108307          0.415907
  19         V                 0.138378          0.426100
  20         V                 0.145114          0.624238
  21         V                 0.149315          0.443173
  22         V                 0.188554          1.011351
  23         V                 0.214848          0.477533
  24         V                 0.221116          0.472982
  25         V                 0.224739          0.450798
  26         V                 0.231685          0.849850
  27         V                 0.256425          1.790967
  28         V                 0.298553          0.766927
  29         V                 0.382790          1.297874
  30         V                 0.506101          1.226869
  31         V                 0.511019          1.431056
  32         V                 0.549907          1.519895
  33         V                 0.564208          1.252343
  34         V                 0.644132          1.921337
  35         V                 0.669448          1.551319
  36         V                 0.757127          1.538458
  37         V                 0.764393          2.049059
  38         V                 0.771843          1.916355
  39         V                 0.780063          1.901712
  40         V                 0.798087          1.660746
  41         V                 0.861882          1.805554
  42         V                 0.867056          2.699611
  43         V                 0.869315          1.590657
  44         V                 0.875149          1.883676
  45         V                 0.964961          1.686972
  46         V                 0.988143          2.881426
  47         V                 1.005900          1.764278
  48         V                 1.143004          2.686615
  49         V                 1.239170          1.899481
  50         V                 1.254048          2.743975
  51         V                 1.268245          2.152549
  52         V                 1.293997          2.584129
  53         V                 1.357919          2.232596
  54         V                 1.399028          2.168630
  55         V                 1.681706          2.566664
  56         V                 1.688909          2.355752
  57         V                 1.801458          2.856718
  58         V                 1.886955          2.544596
  59         V                 1.942399          3.541261
  60         V                 2.097580          3.513736
  61         V                 2.117716          3.413444
  62         V                 2.337246          3.682480
  63         V                 2.347745          3.587279
  64         V                 2.568126          4.475297
  65         V                 2.646852          4.059663
  66         V                 2.811941          6.108292
  67         V                 2.864846          4.819247
  68         V                 3.195253          5.370883
  69         V                 3.272675          5.824969
  70         V                 3.391174          5.810660
  71         V                 3.439196          6.317774
  72         V                 3.550456          6.063860
  73         V                 3.812860          8.332773
  74         V                 3.850685          8.653768
  75         V                 3.967791          8.945198
  76         V                 3.972633          8.792591
  77         V                 3.975044          7.219997
  78         V                 4.119745          6.261533
  79         V                 4.417086          9.021756
  80         V                 4.659418          7.137165
  81         V                 4.662228          7.289881
  82         V                 4.689751          7.816707
  83         V                 4.793624          7.258477
  84         V                 4.809252          7.321405
  85         V                 4.856585          7.307422
  86         V                 4.920523          7.378687
  87         V                 5.130822          7.693764
  88         V                 5.232281          7.780265
  89         V                 5.275382          9.285985
  90         V                 5.877596          8.982997
  91         V                24.236284         60.529270
  92         V                35.418934         89.058044
  93         V                35.817121         88.976676
 Total kinetic energy from orbitals= 1.478484343746D+02
 1|1|UNPC-DESKTOP-KC5UJLK|SP|RAPFD|6-311+G(2d,p)|C1H2N2|23122|05-Feb-20
 22|0||# apfd/6-311+g(2d,p) geom=connectivity pop=full int=ultrafine||E
 nergy Calculation(GC)||0,1|N,0,0.12658055,-0.00678779,0.|N,0,1.3415112
 7,0.00731054,0.|C,0,-1.15199658,-0.02161901,0.|H,0,-1.68233161,0.06302
 74,-0.92552592|H,0,-1.68233161,0.0630274,0.92552592||Version=IA32W-G09
 RevD.01|State=1-A'|HF=-148.6458644|RMSD=4.434e-009|Dipole=-0.8532146,0
 .0714756,0.|Quadrupole=-0.4010667,-1.1293226,1.5303893,-0.2725683,0.,0
 .|PG=CS [SG(C1N2),X(H2)]||@


 Once you get people laughing, they're
 listening and you can tell them almost anything.
                                 -- Herb Gardner
 Job cpu time:       0 days  0 hours  0 minutes 12.0 seconds.
 File lengths (MBytes):  RWF=      5 Int=      0 D2E=      0 Chk=      1 Scr=      1
 Normal termination of Gaussian 09 at Sat Feb 05 15:49:58 2022.
