 Entering Link 1 = C:\G09W\l1.exe PID=      2764.
  
 Copyright (c) 1988,1990,1992,1993,1995,1998,2003,2009,2013,
            Gaussian, Inc.  All Rights Reserved.
  
 This is part of the Gaussian(R) 09 program.  It is based on
 the Gaussian(R) 03 system (copyright 2003, Gaussian, Inc.),
 the Gaussian(R) 98 system (copyright 1998, Gaussian, Inc.),
 the Gaussian(R) 94 system (copyright 1995, Gaussian, Inc.),
 the Gaussian 92(TM) system (copyright 1992, Gaussian, Inc.),
 the Gaussian 90(TM) system (copyright 1990, Gaussian, Inc.),
 the Gaussian 88(TM) system (copyright 1988, Gaussian, Inc.),
 the Gaussian 86(TM) system (copyright 1986, Carnegie Mellon
 University), and the Gaussian 82(TM) system (copyright 1983,
 Carnegie Mellon University). Gaussian is a federally registered
 trademark of Gaussian, Inc.
  
 This software contains proprietary and confidential information,
 including trade secrets, belonging to Gaussian, Inc.
  
 This software is provided under written license and may be
 used, copied, transmitted, or stored only in accord with that
 written license.
  
 The following legend is applicable only to US Government
 contracts under FAR:
  
                    RESTRICTED RIGHTS LEGEND
  
 Use, reproduction and disclosure by the US Government is
 subject to restrictions as set forth in subparagraphs (a)
 and (c) of the Commercial Computer Software - Restricted
 Rights clause in FAR 52.227-19.
  
 Gaussian, Inc.
 340 Quinnipiac St., Bldg. 40, Wallingford CT 06492
  
  
 ---------------------------------------------------------------
 Warning -- This program may not be used in any manner that
 competes with the business of Gaussian, Inc. or will provide
 assistance to any competitor of Gaussian, Inc.  The licensee
 of this program is prohibited from giving any competitor of
 Gaussian, Inc. access to this program.  By using this program,
 the user acknowledges that Gaussian, Inc. is engaged in the
 business of creating and licensing software in the field of
 computational chemistry and represents and warrants to the
 licensee that it is not a competitor of Gaussian, Inc. and that
 it will not use this program in any manner prohibited above.
 ---------------------------------------------------------------
  

 Cite this work as:
 Gaussian 09, Revision D.01,
 M. J. Frisch, G. W. Trucks, H. B. Schlegel, G. E. Scuseria, 
 M. A. Robb, J. R. Cheeseman, G. Scalmani, V. Barone, B. Mennucci, 
 G. A. Petersson, H. Nakatsuji, M. Caricato, X. Li, H. P. Hratchian, 
 A. F. Izmaylov, J. Bloino, G. Zheng, J. L. Sonnenberg, M. Hada, 
 M. Ehara, K. Toyota, R. Fukuda, J. Hasegawa, M. Ishida, T. Nakajima, 
 Y. Honda, O. Kitao, H. Nakai, T. Vreven, J. A. Montgomery, Jr., 
 J. E. Peralta, F. Ogliaro, M. Bearpark, J. J. Heyd, E. Brothers, 
 K. N. Kudin, V. N. Staroverov, T. Keith, R. Kobayashi, J. Normand, 
 K. Raghavachari, A. Rendell, J. C. Burant, S. S. Iyengar, J. Tomasi, 
 M. Cossi, N. Rega, J. M. Millam, M. Klene, J. E. Knox, J. B. Cross, 
 V. Bakken, C. Adamo, J. Jaramillo, R. Gomperts, R. E. Stratmann, 
 O. Yazyev, A. J. Austin, R. Cammi, C. Pomelli, J. W. Ochterski, 
 R. L. Martin, K. Morokuma, V. G. Zakrzewski, G. A. Voth, 
 P. Salvador, J. J. Dannenberg, S. Dapprich, A. D. Daniels, 
 O. Farkas, J. B. Foresman, J. V. Ortiz, J. Cioslowski, 
 and D. J. Fox, Gaussian, Inc., Wallingford CT, 2013.
 
 ******************************************
 Gaussian 09:  IA32W-G09RevD.01 24-Apr-2013
                18-Mar-2022 
 ******************************************
 %nprocshared=4
 Will use up to    4 processors via shared memory.
 %mem=1GB
 %chk=D:\mindmap\gaussian\calculate\opt_freq\ch3cooh\3f.chk
 --------------
 # opt freq pm6
 --------------
 1/14=-1,18=20,19=15,26=1,38=1/1,3;
 2/9=110,12=2,17=6,18=5,40=1/2;
 3/5=2,16=1,25=1,41=3900000,71=1/1,2,3;
 4/35=1/1;
 5/5=2,35=1,38=5/2;
 6/7=2,8=2,9=2,10=2,28=1/1;
 7//1,2,3,16;
 1/14=-1,18=20,19=15,26=1/3(2);
 2/9=110/2;
 99//99;
 2/9=110/2;
 3/5=2,16=1,25=1,41=3900000,71=1,135=20/1,2,3;
 4/5=5,16=3,35=1/1;
 5/5=2,35=1,38=5/2;
 7//1,2,3,16;
 1/14=-1,18=20,19=15,26=1/3(-5);
 2/9=110/2;
 6/7=2,8=2,9=2,10=2,19=2,28=1/1;
 99/9=1/99;
 ------------
 opt freq(GC)
 ------------
 Symbolic Z-matrix:
 Charge =  0 Multiplicity = 1
 C                    -2.32001  -1.60103   0.64924 
 C                    -1.08887  -0.90388   1.2574 
 O                    -1.08133   0.34457   1.41521 
 O                     0.04968  -1.67787   1.64413 
 H                     0.72515  -1.09732   2.00233 
 F                    -3.26379  -0.67903   0.3634 
 F                    -2.81514  -2.49247   1.53394 
 F                    -1.96036  -2.24272  -0.48274 
 

 GradGradGradGradGradGradGradGradGradGradGradGradGradGradGradGradGradGrad
 Berny optimization.
 Initialization pass.
                           ----------------------------
                           !    Initial Parameters    !
                           ! (Angstroms and Degrees)  !
 --------------------------                            --------------------------
 ! Name  Definition              Value          Derivative Info.                !
 --------------------------------------------------------------------------------
 ! R1    R(1,2)                  1.54           estimate D2E/DX2                !
 ! R2    R(1,6)                  1.35           estimate D2E/DX2                !
 ! R3    R(1,7)                  1.35           estimate D2E/DX2                !
 ! R4    R(1,8)                  1.35           estimate D2E/DX2                !
 ! R5    R(2,3)                  1.2584         estimate D2E/DX2                !
 ! R6    R(2,4)                  1.43           estimate D2E/DX2                !
 ! R7    R(4,5)                  0.96           estimate D2E/DX2                !
 ! A1    A(2,1,6)              109.4712         estimate D2E/DX2                !
 ! A2    A(2,1,7)              109.4712         estimate D2E/DX2                !
 ! A3    A(2,1,8)              109.4713         estimate D2E/DX2                !
 ! A4    A(6,1,7)              109.4712         estimate D2E/DX2                !
 ! A5    A(6,1,8)              109.4712         estimate D2E/DX2                !
 ! A6    A(7,1,8)              109.4712         estimate D2E/DX2                !
 ! A7    A(1,2,3)              120.2269         estimate D2E/DX2                !
 ! A8    A(1,2,4)              119.8865         estimate D2E/DX2                !
 ! A9    A(3,2,4)              119.8865         estimate D2E/DX2                !
 ! A10   A(2,4,5)              109.5            estimate D2E/DX2                !
 ! D1    D(6,1,2,3)              0.0            estimate D2E/DX2                !
 ! D2    D(6,1,2,4)            180.0            estimate D2E/DX2                !
 ! D3    D(7,1,2,3)           -120.0            estimate D2E/DX2                !
 ! D4    D(7,1,2,4)             60.0            estimate D2E/DX2                !
 ! D5    D(8,1,2,3)            120.0            estimate D2E/DX2                !
 ! D6    D(8,1,2,4)            -60.0            estimate D2E/DX2                !
 ! D7    D(1,2,4,5)            180.0            estimate D2E/DX2                !
 ! D8    D(3,2,4,5)              0.0            estimate D2E/DX2                !
 --------------------------------------------------------------------------------
 Trust Radius=3.00D-01 FncErr=1.00D-07 GrdErr=1.00D-07
 Number of steps in this run=     35 maximum allowed number of steps=    100.
 GradGradGradGradGradGradGradGradGradGradGradGradGradGradGradGradGradGrad

                          Input orientation:                          
 ---------------------------------------------------------------------
 Center     Atomic      Atomic             Coordinates (Angstroms)
 Number     Number       Type             X           Y           Z
 ---------------------------------------------------------------------
      1          6           0       -2.320013   -1.601028    0.649241
      2          6           0       -1.088868   -0.903878    1.257405
      3          8           0       -1.081328    0.344565    1.415212
      4          8           0        0.049678   -1.677866    1.644129
      5          1           0        0.725152   -1.097325    2.002328
      6          9           0       -3.263793   -0.679033    0.363399
      7          9           0       -2.815137   -2.492470    1.533935
      8          9           0       -1.960361   -2.242719   -0.482740
 ---------------------------------------------------------------------
                    Distance matrix (angstroms):
                    1          2          3          4          5
     1  C    0.000000
     2  C    1.540000   0.000000
     3  O    2.430306   1.258400   0.000000
     4  O    2.571214   1.430000   2.328477   0.000000
     5  H    3.370103   1.970533   2.384769   0.960000   0.000000
     6  F    1.350000   2.362223   2.630061   3.690125   4.332752
     7  F    1.350000   2.362223   3.327005   2.980417   3.833988
     8  F    1.350000   2.362224   3.327005   2.980418   3.833989
                    6          7          8
     6  F    0.000000
     7  F    2.204541   0.000000
     8  F    2.204541   2.204541   0.000000
 Stoichiometry    C2HF3O2
 Framework group  C1[X(C2HF3O2)]
 Deg. of freedom    18
 Full point group                 C1      NOp   1
 Largest Abelian subgroup         C1      NOp   1
 Largest concise Abelian subgroup C1      NOp   1
                         Standard orientation:                         
 ---------------------------------------------------------------------
 Center     Atomic      Atomic             Coordinates (Angstroms)
 Number     Number       Type             X           Y           Z
 ---------------------------------------------------------------------
      1          6           0       -0.637378   -0.041425    0.000000
      2          6           0        0.889850    0.156506    0.000000
      3          8           0        1.378359    1.316216    0.000000
      4          8           0        1.755837   -0.981460    0.000000
      5          1           0        2.670029   -0.688456    0.000000
      6          9           0       -1.247233    1.162974    0.000000
      7          9           0       -1.001851   -0.730380    1.102270
      8          9           0       -1.001852   -0.730380   -1.102270
 ---------------------------------------------------------------------
 Rotational constants (GHZ):      3.7161396      2.3521686      1.9548925
 Standard basis: VSTO-6G (5D, 7F)
 There are    29 symmetry adapted cartesian basis functions of A   symmetry.
 There are    29 symmetry adapted basis functions of A   symmetry.
    29 basis functions,   174 primitive gaussians,    29 cartesian basis functions
    21 alpha electrons       21 beta electrons
       nuclear repulsion energy       240.3978397237 Hartrees.
 Integral buffers will be    262144 words long.
 Regular integral format.
 Two-electron integral symmetry is turned off.
 Do NDO integrals.
 One-electron integrals computed using PRISM.
 NBasis=    29 RedAO= F EigKep=  0.00D+00  NBF=    29
 NBsUse=    29 1.00D-04 EigRej=  0.00D+00 NBFU=    29
 Simple Huckel Guess.
 Overlap will be assumed to be unity.
 Keep J ints in memory in canonical form, NReq=884919.
 Requested convergence on RMS density matrix=1.00D-08 within 128 cycles.
 Requested convergence on MAX density matrix=1.00D-06.
 Requested convergence on             energy=1.00D-06.
 No special actions if energy rises.
 SCF Done:  E(RPM6) = -0.362820041607     A.U. after   15 cycles
            NFock= 14  Conv=0.34D-08     -V/T= 0.9885

 **********************************************************************

            Population analysis using the SCF density.

 **********************************************************************

 Orbital symmetries:
       Occupied  (A) (A) (A) (A) (A) (A) (A) (A) (A) (A) (A) (A)
                 (A) (A) (A) (A) (A) (A) (A) (A) (A)
       Virtual   (A) (A) (A) (A) (A) (A) (A) (A)
 The electronic state is 1-A.
 Alpha  occ. eigenvalues --   -1.59697  -1.59560  -1.59498  -1.19281  -1.14899
 Alpha  occ. eigenvalues --   -0.99340  -0.83768  -0.74537  -0.73638  -0.72142
 Alpha  occ. eigenvalues --   -0.67832  -0.64983  -0.64726  -0.64097  -0.60664
 Alpha  occ. eigenvalues --   -0.60472  -0.59609  -0.58261  -0.53529  -0.47357
 Alpha  occ. eigenvalues --   -0.44071
 Alpha virt. eigenvalues --   -0.04159  -0.01590   0.03449   0.04888   0.06217
 Alpha virt. eigenvalues --    0.06605   0.10483   0.15650
          Condensed to atoms (all electrons):
               1          2          3          4          5          6
     1  C    3.621811   0.000000   0.000000   0.000000   0.000000   0.000000
     2  C    0.000000   3.490946   0.000000   0.000000   0.000000   0.000000
     3  O    0.000000   0.000000   6.423257   0.000000   0.000000   0.000000
     4  O    0.000000   0.000000   0.000000   6.455610   0.000000   0.000000
     5  H    0.000000   0.000000   0.000000   0.000000   0.663522   0.000000
     6  F    0.000000   0.000000   0.000000   0.000000   0.000000   7.102640
     7  F    0.000000   0.000000   0.000000   0.000000   0.000000   0.000000
     8  F    0.000000   0.000000   0.000000   0.000000   0.000000   0.000000
               7          8
     1  C    0.000000   0.000000
     2  C    0.000000   0.000000
     3  O    0.000000   0.000000
     4  O    0.000000   0.000000
     5  H    0.000000   0.000000
     6  F    0.000000   0.000000
     7  F    7.121108   0.000000
     8  F    0.000000   7.121107
 Mulliken charges:
               1
     1  C    0.378189
     2  C    0.509054
     3  O   -0.423257
     4  O   -0.455610
     5  H    0.336478
     6  F   -0.102640
     7  F   -0.121108
     8  F   -0.121107
 Sum of Mulliken charges =   0.00000
 Mulliken charges with hydrogens summed into heavy atoms:
               1
     1  C    0.378189
     2  C    0.509054
     3  O   -0.423257
     4  O   -0.119132
     6  F   -0.102640
     7  F   -0.121108
     8  F   -0.121107
 Charge=              0.0000 electrons
 Dipole moment (field-independent basis, Debye):
    X=              0.7997    Y=             -0.9824    Z=              0.0000  Tot=              1.2667
 N-N= 2.403978397237D+02 E-N=-4.147937349815D+02  KE=-3.148835894219D+01
 Calling FoFJK, ICntrl=      2127 FMM=F ISym2X=0 I1Cent= 0 IOpClX= 0 NMat=1 NMatS=1 NMatT=0.
 ***** Axes restored to original set *****
 -------------------------------------------------------------------
 Center     Atomic                   Forces (Hartrees/Bohr)
 Number     Number              X              Y              Z
 -------------------------------------------------------------------
      1        6           0.017239518   -0.006004628    0.006563424
      2        6           0.035439796    0.071965683    0.023933719
      3        8           0.005793153   -0.084904527   -0.008059389
      4        8          -0.064253734    0.013891209   -0.025513898
      5        1           0.013216509    0.011820828    0.007065807
      6        9           0.012055215   -0.023771588    0.002165718
      7        9          -0.001957229    0.010777022   -0.021452017
      8        9          -0.017533226    0.006226001    0.015296636
 -------------------------------------------------------------------
 Cartesian Forces:  Max     0.084904527 RMS     0.030210184

 GradGradGradGradGradGradGradGradGradGradGradGradGradGradGradGradGradGrad
 Berny optimization.
 FormGI is forming the generalized inverse of G from B-inverse, IUseBI=4.
 Internal  Forces:  Max     0.085208704 RMS     0.024229005
 Search for a local minimum.
 Step number   1 out of a maximum of   35
 All quantities printed in internal units (Hartrees-Bohrs-Radians)
 Mixed Optimization -- RFO/linear search
 Second derivative matrix not updated -- first step.
 ITU=  0
     Eigenvalues ---    0.00237   0.00500   0.01295   0.11243   0.11243
     Eigenvalues ---    0.16000   0.25000   0.25000   0.25000   0.25000
     Eigenvalues ---    0.25000   0.28519   0.40989   0.55021   0.55021
     Eigenvalues ---    0.55021   0.55473   0.80209
 RFO step:  Lambda=-2.74078675D-02 EMin= 2.36824146D-03
 Linear search not attempted -- first point.
 Iteration  1 RMS(Cart)=  0.05747700 RMS(Int)=  0.00221298
 Iteration  2 RMS(Cart)=  0.00224202 RMS(Int)=  0.00077258
 Iteration  3 RMS(Cart)=  0.00000380 RMS(Int)=  0.00077257
 Iteration  4 RMS(Cart)=  0.00000001 RMS(Int)=  0.00077257
 Variable       Old X    -DE/DX   Delta X   Delta X   Delta X     New X
                                 (Linear)    (Quad)   (Total)
    R1        2.91018  -0.00307   0.00000  -0.00983  -0.00983   2.90035
    R2        2.55113  -0.02512   0.00000  -0.04349  -0.04349   2.50764
    R3        2.55113  -0.02046   0.00000  -0.03542  -0.03542   2.51571
    R4        2.55113  -0.02046   0.00000  -0.03542  -0.03542   2.51571
    R5        2.37803  -0.08521   0.00000  -0.10272  -0.10272   2.27531
    R6        2.70231  -0.05954   0.00000  -0.13616  -0.13616   2.56615
    R7        1.81414   0.01908   0.00000   0.03278   0.03278   1.84692
    A1        1.91063   0.00911   0.00000   0.03005   0.02917   1.93980
    A2        1.91063   0.01750   0.00000   0.06446   0.06271   1.97334
    A3        1.91063   0.01750   0.00000   0.06446   0.06271   1.97334
    A4        1.91063  -0.01428   0.00000  -0.05425  -0.05505   1.85559
    A5        1.91063  -0.01428   0.00000  -0.05425  -0.05505   1.85559
    A6        1.91063  -0.01554   0.00000  -0.05047  -0.05280   1.85783
    A7        2.09836   0.01767   0.00000   0.06370   0.06370   2.16205
    A8        2.09241  -0.01908   0.00000  -0.06877  -0.06877   2.02365
    A9        2.09241   0.00141   0.00000   0.00507   0.00507   2.09749
   A10        1.91114  -0.00064   0.00000  -0.00344  -0.00344   1.90770
    D1        0.00000   0.00000   0.00000   0.00000   0.00000   0.00000
    D2        3.14159   0.00000   0.00000   0.00000   0.00000  -3.14159
    D3       -2.09440   0.00120   0.00000   0.00857   0.00914  -2.08526
    D4        1.04720   0.00120   0.00000   0.00857   0.00914   1.05633
    D5        2.09440  -0.00120   0.00000  -0.00857  -0.00914   2.08526
    D6       -1.04720  -0.00120   0.00000  -0.00857  -0.00914  -1.05633
    D7        3.14159   0.00000   0.00000   0.00000   0.00000  -3.14159
    D8        0.00000   0.00000   0.00000   0.00000   0.00000   0.00000
         Item               Value     Threshold  Converged?
 Maximum Force            0.085209     0.000450     NO 
 RMS     Force            0.024229     0.000300     NO 
 Maximum Displacement     0.129788     0.001800     NO 
 RMS     Displacement     0.057308     0.001200     NO 
 Predicted change in Energy=-1.454840D-02
 GradGradGradGradGradGradGradGradGradGradGradGradGradGradGradGradGradGrad

                          Input orientation:                          
 ---------------------------------------------------------------------
 Center     Atomic      Atomic             Coordinates (Angstroms)
 Number     Number       Type             X           Y           Z
 ---------------------------------------------------------------------
      1          6           0       -2.280603   -1.593223    0.666912
      2          6           0       -1.070895   -0.866005    1.269713
      3          8           0       -1.019681    0.324987    1.438917
      4          8           0       -0.019003   -1.650856    1.618364
      5          1           0        0.692117   -1.092136    1.988969
      6          9           0       -3.249377   -0.739154    0.362064
      7          9           0       -2.817055   -2.487485    1.494419
      8          9           0       -1.990172   -2.245884   -0.456447
 ---------------------------------------------------------------------
                    Distance matrix (angstroms):
                    1          2          3          4          5
     1  C    0.000000
     2  C    1.534800   0.000000
     3  O    2.421869   1.204041   0.000000
     4  O    2.454265   1.357950   2.222052   0.000000
     5  H    3.291807   1.917466   2.289334   0.977348   0.000000
     6  F    1.326986   2.363409   2.695098   3.583966   4.278644
     7  F    1.331259   2.393483   3.338208   2.923081   3.808657
     8  F    1.331259   2.393484   3.338208   2.923081   3.808657
                    6          7          8
     6  F    0.000000
     7  F    2.127391   0.000000
     8  F    2.127391   2.132600   0.000000
 Stoichiometry    C2HF3O2
 Framework group  C1[X(C2HF3O2)]
 Deg. of freedom    18
 Full point group                 C1      NOp   1
 Largest Abelian subgroup         C1      NOp   1
 Largest concise Abelian subgroup C1      NOp   1
                         Standard orientation:                         
 ---------------------------------------------------------------------
 Center     Atomic      Atomic             Coordinates (Angstroms)
 Number     Number       Type             X           Y           Z
 ---------------------------------------------------------------------
      1          6           0       -0.596092   -0.015768    0.000000
      2          6           0        0.930405    0.143659    0.000000
      3          8           0        1.494076    1.207609    0.000000
      4          8           0        1.648173   -1.009094    0.000000
      5          1           0        2.601962   -0.795797    0.000000
      6          9           0       -1.200693    1.165481    0.000000
      7          9           0       -1.052199   -0.669389    1.066300
      8          9           0       -1.052200   -0.669389   -1.066300
 ---------------------------------------------------------------------
 Rotational constants (GHZ):      3.9956618      2.3722947      1.9966667
 Standard basis: VSTO-6G (5D, 7F)
 There are    29 symmetry adapted cartesian basis functions of A   symmetry.
 There are    29 symmetry adapted basis functions of A   symmetry.
    29 basis functions,   174 primitive gaussians,    29 cartesian basis functions
    21 alpha electrons       21 beta electrons
       nuclear repulsion energy       242.6548258559 Hartrees.
 Integral buffers will be    262144 words long.
 Regular integral format.
 Two-electron integral symmetry is turned off.
 Do NDO integrals.
 One-electron integrals computed using PRISM.
 NBasis=    29 RedAO= F EigKep=  0.00D+00  NBF=    29
 NBsUse=    29 1.00D-04 EigRej=  0.00D+00 NBFU=    29
 Initial guess from the checkpoint file:  "D:\mindmap\gaussian\calculate\opt_freq\ch3cooh\3f.chk"
 B after Tr=     0.000000    0.000000    0.000000
         Rot=    0.999686    0.000000    0.000000    0.025072 Ang=   2.87 deg.
 Overlap will be assumed to be unity.
 Keep J ints in memory in canonical form, NReq=884919.
 Requested convergence on RMS density matrix=1.00D-08 within 128 cycles.
 Requested convergence on MAX density matrix=1.00D-06.
 Requested convergence on             energy=1.00D-06.
 No special actions if energy rises.
 SCF Done:  E(RPM6) = -0.377776887915     A.U. after   13 cycles
            NFock= 12  Conv=0.39D-08     -V/T= 0.9881
 Calling FoFJK, ICntrl=      2127 FMM=F ISym2X=0 I1Cent= 0 IOpClX= 0 NMat=1 NMatS=1 NMatT=0.
 ***** Axes restored to original set *****
 -------------------------------------------------------------------
 Center     Atomic                   Forces (Hartrees/Bohr)
 Number     Number              X              Y              Z
 -------------------------------------------------------------------
      1        6           0.010029836   -0.006134766    0.003491462
      2        6           0.002070141    0.014667130    0.002693853
      3        8          -0.002488926    0.003834256   -0.000580098
      4        8          -0.014347363   -0.013096805   -0.007703145
      5        1           0.014852927    0.004210421    0.006816911
      6        9          -0.006119554    0.003590496   -0.002149130
      7        9          -0.003230783   -0.003895398    0.001622301
      8        9          -0.000766279   -0.003175334   -0.004192154
 -------------------------------------------------------------------
 Cartesian Forces:  Max     0.014852927 RMS     0.007162662

 GradGradGradGradGradGradGradGradGradGradGradGradGradGradGradGradGradGrad
 Berny optimization.
 Using GEDIIS/GDIIS optimizer.
 FormGI is forming the generalized inverse of G from B-inverse, IUseBI=4.
 Internal  Forces:  Max     0.017455601 RMS     0.006466196
 Search for a local minimum.
 Step number   2 out of a maximum of   35
 All quantities printed in internal units (Hartrees-Bohrs-Radians)
 Mixed Optimization -- RFO/linear search
 Update second derivatives using D2CorX and points    1    2
 DE= -1.50D-02 DEPred=-1.45D-02 R= 1.03D+00
 TightC=F SS=  1.41D+00  RLast= 2.48D-01 DXNew= 5.0454D-01 7.4327D-01
 Trust test= 1.03D+00 RLast= 2.48D-01 DXMaxT set to 5.05D-01
 ITU=  1  0
 Use linear search instead of GDIIS.
     Eigenvalues ---    0.00237   0.00486   0.01295   0.10102   0.10499
     Eigenvalues ---    0.15601   0.20724   0.25000   0.25000   0.25000
     Eigenvalues ---    0.26101   0.28653   0.43865   0.53632   0.55021
     Eigenvalues ---    0.55023   0.59313   0.87068
 RFO step:  Lambda=-3.68940348D-03 EMin= 2.36824146D-03
 Quartic linear search produced a step of  0.03151.
 Iteration  1 RMS(Cart)=  0.04865275 RMS(Int)=  0.00241885
 Iteration  2 RMS(Cart)=  0.00322101 RMS(Int)=  0.00006780
 Iteration  3 RMS(Cart)=  0.00000980 RMS(Int)=  0.00006746
 Iteration  4 RMS(Cart)=  0.00000000 RMS(Int)=  0.00006746
 Variable       Old X    -DE/DX   Delta X   Delta X   Delta X     New X
                                 (Linear)    (Quad)   (Total)
    R1        2.90035   0.00511  -0.00031   0.01734   0.01703   2.91738
    R2        2.50764   0.00727  -0.00137   0.00945   0.00808   2.51572
    R3        2.51571   0.00493  -0.00112   0.00585   0.00473   2.52044
    R4        2.51571   0.00493  -0.00112   0.00585   0.00473   2.52044
    R5        2.27531   0.00361  -0.00324  -0.00522  -0.00846   2.26685
    R6        2.56615   0.00530  -0.00429   0.00076  -0.00353   2.56262
    R7        1.84692   0.01580   0.00103   0.03221   0.03324   1.88016
    A1        1.93980   0.00137   0.00092   0.00809   0.00891   1.94872
    A2        1.97334   0.00237   0.00198   0.01484   0.01666   1.99000
    A3        1.97334   0.00237   0.00198   0.01484   0.01666   1.99000
    A4        1.85559  -0.00203  -0.00173  -0.01296  -0.01478   1.84081
    A5        1.85559  -0.00203  -0.00173  -0.01296  -0.01478   1.84081
    A6        1.85783  -0.00269  -0.00166  -0.01574  -0.01760   1.84023
    A7        2.16205   0.00546   0.00201   0.02764   0.02965   2.19170
    A8        2.02365  -0.01746  -0.00217  -0.07676  -0.07892   1.94472
    A9        2.09749   0.01199   0.00016   0.04912   0.04928   2.14676
   A10        1.90770   0.01096  -0.00011   0.06867   0.06856   1.97626
    D1        0.00000   0.00000   0.00000   0.00000   0.00000   0.00000
    D2       -3.14159   0.00000   0.00000   0.00000   0.00000  -3.14159
    D3       -2.08526   0.00001   0.00029   0.00077   0.00110  -2.08416
    D4        1.05633   0.00001   0.00029   0.00077   0.00110   1.05743
    D5        2.08526  -0.00001  -0.00029  -0.00077  -0.00110   2.08416
    D6       -1.05633  -0.00001  -0.00029  -0.00077  -0.00110  -1.05743
    D7       -3.14159   0.00000   0.00000   0.00000   0.00000  -3.14159
    D8        0.00000   0.00000   0.00000   0.00000   0.00000   0.00000
         Item               Value     Threshold  Converged?
 Maximum Force            0.017456     0.000450     NO 
 RMS     Force            0.006466     0.000300     NO 
 Maximum Displacement     0.148320     0.001800     NO 
 RMS     Displacement     0.050467     0.001200     NO 
 Predicted change in Energy=-1.922693D-03
 GradGradGradGradGradGradGradGradGradGradGradGradGradGradGradGradGradGrad

                          Input orientation:                          
 ---------------------------------------------------------------------
 Center     Atomic      Atomic             Coordinates (Angstroms)
 Number     Number       Type             X           Y           Z
 ---------------------------------------------------------------------
      1          6           0       -2.268863   -1.586104    0.672770
      2          6           0       -1.077170   -0.810338    1.273947
      3          8           0       -1.030011    0.376611    1.440931
      4          8           0       -0.058830   -1.643440    1.602401
      5          1           0        0.724601   -1.170623    1.993017
      6          9           0       -3.271398   -0.772409    0.348611
      7          9           0       -2.797976   -2.491953    1.496418
      8          9           0       -1.975019   -2.251500   -0.445186
 ---------------------------------------------------------------------
                    Distance matrix (angstroms):
                    1          2          3          4          5
     1  C    0.000000
     2  C    1.543814   0.000000
     3  O    2.444806   1.199565   0.000000
     4  O    2.398280   1.356081   2.247192   0.000000
     5  H    3.297954   1.973131   2.403621   0.994938   0.000000
     6  F    1.331261   2.381664   2.745401   3.556863   4.339430
     7  F    1.333762   2.416299   3.370080   2.869517   3.794875
     8  F    1.333762   2.416299   3.370081   2.869517   3.794875
                    6          7          8
     6  F    0.000000
     7  F    2.120948   0.000000
     8  F    2.120948   2.122475   0.000000
 Stoichiometry    C2HF3O2
 Framework group  C1[X(C2HF3O2)]
 Deg. of freedom    18
 Full point group                 C1      NOp   1
 Largest Abelian subgroup         C1      NOp   1
 Largest concise Abelian subgroup C1      NOp   1
                         Standard orientation:                         
 ---------------------------------------------------------------------
 Center     Atomic      Atomic             Coordinates (Angstroms)
 Number     Number       Type             X           Y           Z
 ---------------------------------------------------------------------
      1          6           0       -0.580519   -0.004974    0.000000
      2          6           0        0.954331    0.161142    0.000000
      3          8           0        1.543166    1.206240    0.000000
      4          8           0        1.582630   -1.040606    0.000000
      5          1           0        2.574675   -0.964794    0.000000
      6          9           0       -1.202025    1.172305    0.000000
      7          9           0       -1.055871   -0.658224    1.061237
      8          9           0       -1.055871   -0.658224   -1.061237
 ---------------------------------------------------------------------
 Rotational constants (GHZ):      3.9753108      2.3818396      1.9918481
 Standard basis: VSTO-6G (5D, 7F)
 There are    29 symmetry adapted cartesian basis functions of A   symmetry.
 There are    29 symmetry adapted basis functions of A   symmetry.
    29 basis functions,   174 primitive gaussians,    29 cartesian basis functions
    21 alpha electrons       21 beta electrons
       nuclear repulsion energy       242.5105606543 Hartrees.
 Integral buffers will be    262144 words long.
 Regular integral format.
 Two-electron integral symmetry is turned off.
 Do NDO integrals.
 One-electron integrals computed using PRISM.
 NBasis=    29 RedAO= F EigKep=  0.00D+00  NBF=    29
 NBsUse=    29 1.00D-04 EigRej=  0.00D+00 NBFU=    29
 Initial guess from the checkpoint file:  "D:\mindmap\gaussian\calculate\opt_freq\ch3cooh\3f.chk"
 B after Tr=     0.000000    0.000000    0.000000
         Rot=    0.999964    0.000000    0.000000    0.008512 Ang=   0.98 deg.
 Overlap will be assumed to be unity.
 Keep J ints in memory in canonical form, NReq=884919.
 Requested convergence on RMS density matrix=1.00D-08 within 128 cycles.
 Requested convergence on MAX density matrix=1.00D-06.
 Requested convergence on             energy=1.00D-06.
 No special actions if energy rises.
 SCF Done:  E(RPM6) = -0.380114614086     A.U. after   13 cycles
            NFock= 12  Conv=0.52D-08     -V/T= 0.9880
 Calling FoFJK, ICntrl=      2127 FMM=F ISym2X=0 I1Cent= 0 IOpClX= 0 NMat=1 NMatS=1 NMatT=0.
 ***** Axes restored to original set *****
 -------------------------------------------------------------------
 Center     Atomic                   Forces (Hartrees/Bohr)
 Number     Number              X              Y              Z
 -------------------------------------------------------------------
      1        6           0.003981593   -0.003559068    0.001246870
      2        6           0.001544529    0.005643126    0.001353499
      3        8          -0.000247977    0.002151351    0.000161329
      4        8          -0.005471570   -0.007197822   -0.003210545
      5        1           0.002514670    0.002599672    0.001387805
      6        9          -0.003503379    0.003312702   -0.001074671
      7        9          -0.000513283   -0.001797653    0.002673346
      8        9           0.001695415   -0.001152309   -0.002537632
 -------------------------------------------------------------------
 Cartesian Forces:  Max     0.007197822 RMS     0.003052331

 GradGradGradGradGradGradGradGradGradGradGradGradGradGradGradGradGradGrad
 Berny optimization.
 Using GEDIIS/GDIIS optimizer.
 FormGI is forming the generalized inverse of G from B-inverse, IUseBI=4.
 Internal  Forces:  Max     0.008401181 RMS     0.002675779
 Search for a local minimum.
 Step number   3 out of a maximum of   35
 All quantities printed in internal units (Hartrees-Bohrs-Radians)
 Mixed Optimization -- RFO/linear search
 Update second derivatives using D2CorX and points    1    2    3
 DE= -2.34D-03 DEPred=-1.92D-03 R= 1.22D+00
 TightC=F SS=  1.41D+00  RLast= 1.31D-01 DXNew= 8.4853D-01 3.9358D-01
 Trust test= 1.22D+00 RLast= 1.31D-01 DXMaxT set to 5.05D-01
 ITU=  1  1  0
 Use linear search instead of GDIIS.
     Eigenvalues ---    0.00237   0.00489   0.01295   0.09814   0.10281
     Eigenvalues ---    0.13201   0.18350   0.25000   0.25000   0.25396
     Eigenvalues ---    0.27402   0.29040   0.43812   0.53689   0.55021
     Eigenvalues ---    0.55078   0.57934   0.87249
 RFO step:  Lambda=-5.94263929D-04 EMin= 2.36824146D-03
 Quartic linear search produced a step of  0.36391.
 Iteration  1 RMS(Cart)=  0.03354627 RMS(Int)=  0.00057584
 Iteration  2 RMS(Cart)=  0.00079505 RMS(Int)=  0.00001682
 Iteration  3 RMS(Cart)=  0.00000018 RMS(Int)=  0.00001682
 Variable       Old X    -DE/DX   Delta X   Delta X   Delta X     New X
                                 (Linear)    (Quad)   (Total)
    R1        2.91738   0.00020   0.00620  -0.00309   0.00311   2.92049
    R2        2.51572   0.00492   0.00294   0.00773   0.01067   2.52639
    R3        2.52044   0.00308   0.00172   0.00439   0.00611   2.52655
    R4        2.52044   0.00308   0.00172   0.00439   0.00611   2.52655
    R5        2.26685   0.00214  -0.00308  -0.00100  -0.00408   2.26277
    R6        2.56262   0.00016  -0.00128  -0.00705  -0.00833   2.55429
    R7        1.88016   0.00376   0.01210   0.00429   0.01639   1.89655
    A1        1.94872   0.00002   0.00324   0.00084   0.00406   1.95278
    A2        1.99000  -0.00142   0.00606  -0.00784  -0.00182   1.98818
    A3        1.99000  -0.00142   0.00606  -0.00784  -0.00182   1.98818
    A4        1.84081   0.00088  -0.00538   0.00514  -0.00026   1.84055
    A5        1.84081   0.00088  -0.00538   0.00514  -0.00026   1.84055
    A6        1.84023   0.00143  -0.00640   0.00656   0.00011   1.84034
    A7        2.19170   0.00379   0.01079   0.01824   0.02903   2.22073
    A8        1.94472  -0.00840  -0.02872  -0.03340  -0.06213   1.88260
    A9        2.14676   0.00461   0.01793   0.01516   0.03310   2.17986
   A10        1.97626  -0.00175   0.02495  -0.02853  -0.00358   1.97268
    D1        0.00000   0.00000   0.00000   0.00000   0.00000   0.00000
    D2       -3.14159   0.00000   0.00000   0.00000   0.00000   3.14159
    D3       -2.08416  -0.00016   0.00040  -0.00177  -0.00136  -2.08552
    D4        1.05743  -0.00016   0.00040  -0.00177  -0.00136   1.05607
    D5        2.08416   0.00016  -0.00040   0.00177   0.00136   2.08552
    D6       -1.05743   0.00016  -0.00040   0.00177   0.00136  -1.05607
    D7        3.14159   0.00000   0.00000   0.00000   0.00000  -3.14159
    D8        0.00000   0.00000   0.00000   0.00000   0.00000   0.00000
         Item               Value     Threshold  Converged?
 Maximum Force            0.008401     0.000450     NO 
 RMS     Force            0.002676     0.000300     NO 
 Maximum Displacement     0.074359     0.001800     NO 
 RMS     Displacement     0.033974     0.001200     NO 
 Predicted change in Energy=-4.584671D-04
 GradGradGradGradGradGradGradGradGradGradGradGradGradGradGradGradGradGrad

                          Input orientation:                          
 ---------------------------------------------------------------------
 Center     Atomic      Atomic             Coordinates (Angstroms)
 Number     Number       Type             X           Y           Z
 ---------------------------------------------------------------------
      1          6           0       -2.258986   -1.580990    0.677590
      2          6           0       -1.081672   -0.778324    1.276004
      3          8           0       -1.024422    0.405443    1.446871
      4          8           0       -0.098126   -1.652633    1.584607
      5          1           0        0.710170   -1.209972    1.982028
      6          9           0       -3.282439   -0.789057    0.341870
      7          9           0       -2.772089   -2.492634    1.510164
      8          9           0       -1.947105   -2.251588   -0.436223
 ---------------------------------------------------------------------
                    Distance matrix (angstroms):
                    1          2          3          4          5
     1  C    0.000000
     2  C    1.545458   0.000000
     3  O    2.462084   1.197404   0.000000
     4  O    2.344596   1.351671   2.261122   0.000000
     5  H    3.264215   1.973699   2.429973   1.003611   0.000000
     6  F    1.336908   2.390836   2.783253   3.525622   4.336844
     7  F    1.336993   2.418926   3.384848   2.803787   3.740856
     8  F    1.336993   2.418926   3.384849   2.803787   3.740857
                    6          7          8
     6  F    0.000000
     7  F    2.127803   0.000000
     8  F    2.127803   2.127704   0.000000
 Stoichiometry    C2HF3O2
 Framework group  C1[X(C2HF3O2)]
 Deg. of freedom    18
 Full point group                 C1      NOp   1
 Largest Abelian subgroup         C1      NOp   1
 Largest concise Abelian subgroup C1      NOp   1
                         Standard orientation:                         
 ---------------------------------------------------------------------
 Center     Atomic      Atomic             Coordinates (Angstroms)
 Number     Number       Type             X           Y           Z
 ---------------------------------------------------------------------
      1          6           0       -0.572262    0.005592    0.000000
      2          6           0        0.964491    0.169388    0.000000
      3          8           0        1.583964    1.194098    0.000000
      4          8           0        1.513163   -1.065916    0.000000
      5          1           0        2.516644   -1.049756    0.000000
      6          9           0       -1.199278    1.186343    0.000000
      7          9           0       -1.047418   -0.650148    1.063852
      8          9           0       -1.047419   -0.650148   -1.063852
 ---------------------------------------------------------------------
 Rotational constants (GHZ):      3.9437124      2.4062062      2.0041095
 Standard basis: VSTO-6G (5D, 7F)
 There are    29 symmetry adapted cartesian basis functions of A   symmetry.
 There are    29 symmetry adapted basis functions of A   symmetry.
    29 basis functions,   174 primitive gaussians,    29 cartesian basis functions
    21 alpha electrons       21 beta electrons
       nuclear repulsion energy       242.6071893408 Hartrees.
 Integral buffers will be    262144 words long.
 Regular integral format.
 Two-electron integral symmetry is turned off.
 Do NDO integrals.
 One-electron integrals computed using PRISM.
 NBasis=    29 RedAO= F EigKep=  0.00D+00  NBF=    29
 NBsUse=    29 1.00D-04 EigRej=  0.00D+00 NBFU=    29
 Initial guess from the checkpoint file:  "D:\mindmap\gaussian\calculate\opt_freq\ch3cooh\3f.chk"
 B after Tr=     0.000000    0.000000    0.000000
         Rot=    0.999971    0.000000    0.000000    0.007655 Ang=  -0.88 deg.
 Overlap will be assumed to be unity.
 Keep J ints in memory in canonical form, NReq=884919.
 Requested convergence on RMS density matrix=1.00D-08 within 128 cycles.
 Requested convergence on MAX density matrix=1.00D-06.
 Requested convergence on             energy=1.00D-06.
 No special actions if energy rises.
 SCF Done:  E(RPM6) = -0.380542269719     A.U. after   12 cycles
            NFock= 11  Conv=0.89D-08     -V/T= 0.9880
 Calling FoFJK, ICntrl=      2127 FMM=F ISym2X=0 I1Cent= 0 IOpClX= 0 NMat=1 NMatS=1 NMatT=0.
 ***** Axes restored to original set *****
 -------------------------------------------------------------------
 Center     Atomic                   Forces (Hartrees/Bohr)
 Number     Number              X              Y              Z
 -------------------------------------------------------------------
      1        6          -0.003089777   -0.001280922   -0.001468269
      2        6          -0.003447612    0.001244333   -0.001307101
      3        8           0.000846185    0.001353424    0.000526241
      4        8           0.003497182   -0.002539431    0.001167787
      5        1           0.000549768   -0.000028604    0.000229476
      6        9           0.000466488   -0.000939511    0.000081372
      7        9           0.000870157    0.001177544   -0.000278355
      8        9           0.000307608    0.001013167    0.001048849
 -------------------------------------------------------------------
 Cartesian Forces:  Max     0.003497182 RMS     0.001544598

 GradGradGradGradGradGradGradGradGradGradGradGradGradGradGradGradGradGrad
 Berny optimization.
 Using GEDIIS/GDIIS optimizer.
 FormGI is forming the generalized inverse of G from B-inverse, IUseBI=4.
 Internal  Forces:  Max     0.004924879 RMS     0.001273452
 Search for a local minimum.
 Step number   4 out of a maximum of   35
 All quantities printed in internal units (Hartrees-Bohrs-Radians)
 Mixed Optimization -- RFO/linear search
 Update second derivatives using D2CorX and points    1    2    3    4
 DE= -4.28D-04 DEPred=-4.58D-04 R= 9.33D-01
 TightC=F SS=  1.41D+00  RLast= 8.00D-02 DXNew= 8.4853D-01 2.3989D-01
 Trust test= 9.33D-01 RLast= 8.00D-02 DXMaxT set to 5.05D-01
 ITU=  1  1  1  0
 Use linear search instead of GDIIS.
     Eigenvalues ---    0.00237   0.00490   0.01295   0.09752   0.10245
     Eigenvalues ---    0.12534   0.18679   0.25000   0.25123   0.26173
     Eigenvalues ---    0.26659   0.29072   0.47725   0.52912   0.55021
     Eigenvalues ---    0.55090   0.58865   0.85333
 RFO step:  Lambda=-8.36088187D-05 EMin= 2.36824146D-03
 Quartic linear search produced a step of -0.08732.
 Iteration  1 RMS(Cart)=  0.00468536 RMS(Int)=  0.00001186
 Iteration  2 RMS(Cart)=  0.00001090 RMS(Int)=  0.00000486
 Iteration  3 RMS(Cart)=  0.00000000 RMS(Int)=  0.00000486
 Variable       Old X    -DE/DX   Delta X   Delta X   Delta X     New X
                                 (Linear)    (Quad)   (Total)
    R1        2.92049   0.00136  -0.00027   0.00420   0.00392   2.92442
    R2        2.52639  -0.00093  -0.00093  -0.00049  -0.00142   2.52497
    R3        2.52655  -0.00131  -0.00053  -0.00159  -0.00212   2.52443
    R4        2.52655  -0.00131  -0.00053  -0.00159  -0.00212   2.52443
    R5        2.26277   0.00145   0.00036   0.00087   0.00122   2.26399
    R6        2.55429   0.00492   0.00073   0.00905   0.00978   2.56406
    R7        1.89655   0.00052  -0.00143   0.00237   0.00094   1.89749
    A1        1.95278   0.00128  -0.00035   0.00569   0.00534   1.95811
    A2        1.98818  -0.00113   0.00016  -0.00463  -0.00447   1.98371
    A3        1.98818  -0.00113   0.00016  -0.00463  -0.00447   1.98371
    A4        1.84055   0.00005   0.00002   0.00072   0.00075   1.84130
    A5        1.84055   0.00005   0.00002   0.00072   0.00075   1.84130
    A6        1.84034   0.00103  -0.00001   0.00266   0.00264   1.84298
    A7        2.22073   0.00076  -0.00253   0.00622   0.00369   2.22442
    A8        1.88260   0.00039   0.00542  -0.00535   0.00007   1.88267
    A9        2.17986  -0.00115  -0.00289  -0.00087  -0.00376   2.17610
   A10        1.97268   0.00055   0.00031   0.00091   0.00122   1.97390
    D1        0.00000   0.00000   0.00000   0.00000   0.00000   0.00000
    D2        3.14159   0.00000   0.00000   0.00000   0.00000  -3.14159
    D3       -2.08552  -0.00020   0.00012  -0.00184  -0.00171  -2.08723
    D4        1.05607  -0.00020   0.00012  -0.00183  -0.00171   1.05437
    D5        2.08552   0.00020  -0.00012   0.00183   0.00171   2.08723
    D6       -1.05607   0.00020  -0.00012   0.00184   0.00171  -1.05436
    D7       -3.14159   0.00000   0.00000   0.00000   0.00000   3.14159
    D8        0.00000   0.00000   0.00000   0.00000   0.00000   0.00000
         Item               Value     Threshold  Converged?
 Maximum Force            0.004925     0.000450     NO 
 RMS     Force            0.001273     0.000300     NO 
 Maximum Displacement     0.012087     0.001800     NO 
 RMS     Displacement     0.004686     0.001200     NO 
 Predicted change in Energy=-4.575903D-05
 GradGradGradGradGradGradGradGradGradGradGradGradGradGradGradGradGradGrad

                          Input orientation:                          
 ---------------------------------------------------------------------
 Center     Atomic      Atomic             Coordinates (Angstroms)
 Number     Number       Type             X           Y           Z
 ---------------------------------------------------------------------
      1          6           0       -2.262521   -1.579838    0.676235
      2          6           0       -1.083378   -0.776496    1.275509
      3          8           0       -1.021692    0.407427    1.448274
      4          8           0       -0.096248   -1.654393    1.585185
      5          1           0        0.713104   -1.212814    1.982917
      6          9           0       -3.288835   -0.793723    0.338580
      7          9           0       -2.770109   -2.490501    1.511457
      8          9           0       -1.944989   -2.249415   -0.435246
 ---------------------------------------------------------------------
                    Distance matrix (angstroms):
                    1          2          3          4          5
     1  C    0.000000
     2  C    1.547535   0.000000
     3  O    2.466764   1.198051   0.000000
     4  O    2.350422   1.356844   2.264132   0.000000
     5  H    3.270545   1.979431   2.433216   1.004109   0.000000
     6  F    1.336155   2.396283   2.795375   3.533750   4.346838
     7  F    1.335870   2.416308   3.385106   2.802507   3.739991
     8  F    1.335870   2.416309   3.385105   2.802505   3.739988
                    6          7          8
     6  F    0.000000
     7  F    2.126916   0.000000
     8  F    2.126916   2.128051   0.000000
 Stoichiometry    C2HF3O2
 Framework group  C1[X(C2HF3O2)]
 Deg. of freedom    18
 Full point group                 C1      NOp   1
 Largest Abelian subgroup         C1      NOp   1
 Largest concise Abelian subgroup C1      NOp   1
                         Standard orientation:                         
 ---------------------------------------------------------------------
 Center     Atomic      Atomic             Coordinates (Angstroms)
 Number     Number       Type             X           Y           Z
 ---------------------------------------------------------------------
      1          6           0       -0.575102    0.006126    0.000000
      2          6           0        0.963242    0.174538    0.000002
      3          8           0        1.583900    1.199287    0.000000
      4          8           0        1.517643   -1.063875    0.000000
      5          1           0        2.521592   -1.045991   -0.000001
      6          9           0       -1.211416    1.181036   -0.000001
      7          9           0       -1.042225   -0.652811    1.064025
      8          9           0       -1.042223   -0.652812   -1.064025
 ---------------------------------------------------------------------
 Rotational constants (GHZ):      3.9421403      2.4015787      2.0007154
 Standard basis: VSTO-6G (5D, 7F)
 There are    29 symmetry adapted cartesian basis functions of A   symmetry.
 There are    29 symmetry adapted basis functions of A   symmetry.
    29 basis functions,   174 primitive gaussians,    29 cartesian basis functions
    21 alpha electrons       21 beta electrons
       nuclear repulsion energy       242.5315899670 Hartrees.
 Integral buffers will be    262144 words long.
 Regular integral format.
 Two-electron integral symmetry is turned off.
 Do NDO integrals.
 One-electron integrals computed using PRISM.
 NBasis=    29 RedAO= F EigKep=  0.00D+00  NBF=    29
 NBsUse=    29 1.00D-04 EigRej=  0.00D+00 NBFU=    29
 Initial guess from the checkpoint file:  "D:\mindmap\gaussian\calculate\opt_freq\ch3cooh\3f.chk"
 B after Tr=     0.000000    0.000000    0.000000
         Rot=    0.999998    0.000000    0.000000   -0.001853 Ang=   0.21 deg.
 Overlap will be assumed to be unity.
 Keep J ints in memory in canonical form, NReq=884919.
 Requested convergence on RMS density matrix=1.00D-08 within 128 cycles.
 Requested convergence on MAX density matrix=1.00D-06.
 Requested convergence on             energy=1.00D-06.
 No special actions if energy rises.
 SCF Done:  E(RPM6) = -0.380596717485     A.U. after   11 cycles
            NFock= 10  Conv=0.96D-08     -V/T= 0.9880
 Calling FoFJK, ICntrl=      2127 FMM=F ISym2X=0 I1Cent= 0 IOpClX= 0 NMat=1 NMatS=1 NMatT=0.
 ***** Axes restored to original set *****
 -------------------------------------------------------------------
 Center     Atomic                   Forces (Hartrees/Bohr)
 Number     Number              X              Y              Z
 -------------------------------------------------------------------
      1        6          -0.000837070   -0.000129390   -0.000370689
      2        6          -0.000882972    0.000563628   -0.000304869
      3        8           0.000633390   -0.000713059    0.000180319
      4        8           0.000360685   -0.000246875    0.000122402
      5        1          -0.000219454    0.000201275   -0.000068074
      6        9           0.000292954   -0.000368962    0.000078475
      7        9           0.000321119    0.000345186    0.000193246
      8        9           0.000331348    0.000348197    0.000169191
 -------------------------------------------------------------------
 Cartesian Forces:  Max     0.000882972 RMS     0.000409978

 GradGradGradGradGradGradGradGradGradGradGradGradGradGradGradGradGradGrad
 Berny optimization.
 Using GEDIIS/GDIIS optimizer.
 FormGI is forming the generalized inverse of G from B-inverse, IUseBI=4.
 Internal  Forces:  Max     0.000860081 RMS     0.000401915
 Search for a local minimum.
 Step number   5 out of a maximum of   35
 All quantities printed in internal units (Hartrees-Bohrs-Radians)
 Mixed Optimization -- En-DIIS/RFO-DIIS
 Update second derivatives using D2CorX and points    1    2    3    4    5
 DE= -5.44D-05 DEPred=-4.58D-05 R= 1.19D+00
 TightC=F SS=  1.41D+00  RLast= 1.56D-02 DXNew= 8.4853D-01 4.6656D-02
 Trust test= 1.19D+00 RLast= 1.56D-02 DXMaxT set to 5.05D-01
 ITU=  1  1  1  1  0
 Use linear search instead of GDIIS.
     Eigenvalues ---    0.00237   0.00488   0.01295   0.09369   0.10215
     Eigenvalues ---    0.12252   0.18035   0.19866   0.25000   0.25206
     Eigenvalues ---    0.26489   0.29629   0.50500   0.54735   0.55021
     Eigenvalues ---    0.56155   0.59160   0.95682
 RFO step:  Lambda=-1.57147175D-05 EMin= 2.36824146D-03
 Quartic linear search produced a step of  0.24169.
 Iteration  1 RMS(Cart)=  0.00406844 RMS(Int)=  0.00001156
 Iteration  2 RMS(Cart)=  0.00001085 RMS(Int)=  0.00000484
 Iteration  3 RMS(Cart)=  0.00000000 RMS(Int)=  0.00000484
 Variable       Old X    -DE/DX   Delta X   Delta X   Delta X     New X
                                 (Linear)    (Quad)   (Total)
    R1        2.92442  -0.00021   0.00095  -0.00080   0.00014   2.92456
    R2        2.52497  -0.00046  -0.00034  -0.00061  -0.00095   2.52401
    R3        2.52443  -0.00024  -0.00051  -0.00015  -0.00066   2.52376
    R4        2.52443  -0.00024  -0.00051  -0.00015  -0.00066   2.52376
    R5        2.26399  -0.00065   0.00030  -0.00098  -0.00068   2.26331
    R6        2.56406   0.00014   0.00236   0.00003   0.00239   2.56645
    R7        1.89749  -0.00012   0.00023   0.00034   0.00056   1.89805
    A1        1.95811   0.00047   0.00129   0.00249   0.00379   1.96190
    A2        1.98371  -0.00066  -0.00108  -0.00297  -0.00406   1.97965
    A3        1.98371  -0.00066  -0.00108  -0.00297  -0.00406   1.97965
    A4        1.84130   0.00015   0.00018   0.00087   0.00105   1.84235
    A5        1.84130   0.00015   0.00018   0.00087   0.00105   1.84235
    A6        1.84298   0.00065   0.00064   0.00219   0.00281   1.84579
    A7        2.22442   0.00086   0.00089   0.00459   0.00548   2.22990
    A8        1.88267  -0.00008   0.00002  -0.00212  -0.00211   1.88056
    A9        2.17610  -0.00078  -0.00091  -0.00247  -0.00338   2.17272
   A10        1.97390  -0.00054   0.00029  -0.00274  -0.00244   1.97146
    D1        0.00000   0.00000   0.00000   0.00002   0.00002   0.00002
    D2       -3.14159   0.00000   0.00000  -0.00002  -0.00002   3.14158
    D3       -2.08723  -0.00007  -0.00041  -0.00081  -0.00122  -2.08845
    D4        1.05437  -0.00007  -0.00041  -0.00085  -0.00125   1.05311
    D5        2.08723   0.00007   0.00041   0.00085   0.00125   2.08848
    D6       -1.05436   0.00007   0.00041   0.00081   0.00122  -1.05314
    D7        3.14159   0.00000   0.00000   0.00002   0.00002  -3.14158
    D8        0.00000   0.00000   0.00000  -0.00002  -0.00002  -0.00001
         Item               Value     Threshold  Converged?
 Maximum Force            0.000860     0.000450     NO 
 RMS     Force            0.000402     0.000300     NO 
 Maximum Displacement     0.008149     0.001800     NO 
 RMS     Displacement     0.004070     0.001200     NO 
 Predicted change in Energy=-9.894172D-06
 GradGradGradGradGradGradGradGradGradGradGradGradGradGradGradGradGradGrad

                          Input orientation:                          
 ---------------------------------------------------------------------
 Center     Atomic      Atomic             Coordinates (Angstroms)
 Number     Number       Type             X           Y           Z
 ---------------------------------------------------------------------
      1          6           0       -2.264096   -1.578774    0.675696
      2          6           0       -1.084973   -0.775256    1.274972
      3          8           0       -1.017380    0.407626    1.450127
      4          8           0       -0.098472   -1.656023    1.584041
      5          1           0        0.710919   -1.213921    1.981867
      6          9           0       -3.292667   -0.797124    0.336541
      7          9           0       -2.766884   -2.488780    1.513970
      8          9           0       -1.941116   -2.247502   -0.434303
 ---------------------------------------------------------------------
                    Distance matrix (angstroms):
                    1          2          3          4          5
     1  C    0.000000
     2  C    1.547612   0.000000
     3  O    2.469784   1.197690   0.000000
     4  O    2.349678   1.358109   2.262957   0.000000
     5  H    3.269543   1.979231   2.428823   1.004406   0.000000
     6  F    1.335650   2.398967   2.805072   3.535088   4.348508
     7  F    1.335519   2.412904   3.384378   2.796215   3.733538
     8  F    1.335519   2.412904   3.384387   2.796229   3.733558
                    6          7          8
     6  F    0.000000
     7  F    2.127084   0.000000
     8  F    2.127084   2.129759   0.000000
 Stoichiometry    C2HF3O2
 Framework group  C1[X(C2HF3O2)]
 Deg. of freedom    18
 Full point group                 C1      NOp   1
 Largest Abelian subgroup         C1      NOp   1
 Largest concise Abelian subgroup C1      NOp   1
                         Standard orientation:                         
 ---------------------------------------------------------------------
 Center     Atomic      Atomic             Coordinates (Angstroms)
 Number     Number       Type             X           Y           Z
 ---------------------------------------------------------------------
      1          6           0       -0.576621    0.007302   -0.000001
      2          6           0        0.961590    0.177622   -0.000012
      3          8           0        1.586408    1.199416    0.000000
      4          8           0        1.515427   -1.062428   -0.000001
      5          1           0        2.519645   -1.042960    0.000007
      6          9           0       -1.218587    1.178558    0.000007
      7          9           0       -1.037595   -0.653865    1.064881
      8          9           0       -1.037611   -0.653859   -1.064879
 ---------------------------------------------------------------------
 Rotational constants (GHZ):      3.9429352      2.4012724      2.0018029
 Standard basis: VSTO-6G (5D, 7F)
 There are    29 symmetry adapted cartesian basis functions of A   symmetry.
 There are    29 symmetry adapted basis functions of A   symmetry.
    29 basis functions,   174 primitive gaussians,    29 cartesian basis functions
    21 alpha electrons       21 beta electrons
       nuclear repulsion energy       242.5439207271 Hartrees.
 Integral buffers will be    262144 words long.
 Regular integral format.
 Two-electron integral symmetry is turned off.
 Do NDO integrals.
 One-electron integrals computed using PRISM.
 NBasis=    29 RedAO= F EigKep=  0.00D+00  NBF=    29
 NBsUse=    29 1.00D-04 EigRej=  0.00D+00 NBFU=    29
 Initial guess from the checkpoint file:  "D:\mindmap\gaussian\calculate\opt_freq\ch3cooh\3f.chk"
 B after Tr=     0.000000    0.000000    0.000000
         Rot=    1.000000   -0.000001   -0.000002   -0.000687 Ang=  -0.08 deg.
 Overlap will be assumed to be unity.
 Keep J ints in memory in canonical form, NReq=884919.
 Requested convergence on RMS density matrix=1.00D-08 within 128 cycles.
 Requested convergence on MAX density matrix=1.00D-06.
 Requested convergence on             energy=1.00D-06.
 No special actions if energy rises.
 SCF Done:  E(RPM6) = -0.380609145162     A.U. after   11 cycles
            NFock= 10  Conv=0.75D-08     -V/T= 0.9880
 Calling FoFJK, ICntrl=      2127 FMM=F ISym2X=0 I1Cent= 0 IOpClX= 0 NMat=1 NMatS=1 NMatT=0.
 ***** Axes restored to original set *****
 -------------------------------------------------------------------
 Center     Atomic                   Forces (Hartrees/Bohr)
 Number     Number              X              Y              Z
 -------------------------------------------------------------------
      1        6          -0.000050320    0.000253448    0.000009084
      2        6          -0.000194891   -0.000141791   -0.000097014
      3        8           0.000276993   -0.000173374    0.000094728
      4        8          -0.000024027    0.000196247    0.000013374
      5        1          -0.000237267    0.000040707   -0.000095641
      6        9           0.000146232   -0.000190721    0.000038380
      7        9           0.000029619    0.000004315    0.000047206
      8        9           0.000053662    0.000011169   -0.000010116
 -------------------------------------------------------------------
 Cartesian Forces:  Max     0.000276993 RMS     0.000132592

 GradGradGradGradGradGradGradGradGradGradGradGradGradGradGradGradGradGrad
 Berny optimization.
 Using GEDIIS/GDIIS optimizer.
 FormGI is forming the generalized inverse of G from B-inverse, IUseBI=4.
 Internal  Forces:  Max     0.000369520 RMS     0.000164599
 Search for a local minimum.
 Step number   6 out of a maximum of   35
 All quantities printed in internal units (Hartrees-Bohrs-Radians)
 Mixed Optimization -- En-DIIS/RFO-DIIS
 Swapping is turned off.
 Update second derivatives using D2CorX and points    1    2    3    4    5
                                                      6
 DE= -1.24D-05 DEPred=-9.89D-06 R= 1.26D+00
 TightC=F SS=  1.41D+00  RLast= 1.11D-02 DXNew= 8.4853D-01 3.3372D-02
 Trust test= 1.26D+00 RLast= 1.11D-02 DXMaxT set to 5.05D-01
 ITU=  1  1  1  1  1  0
     Eigenvalues ---    0.00237   0.00485   0.01295   0.08518   0.10200
     Eigenvalues ---    0.12029   0.15519   0.19526   0.25000   0.25229
     Eigenvalues ---    0.27109   0.29592   0.50201   0.54878   0.55021
     Eigenvalues ---    0.56742   0.62453   0.89762
 En-DIIS/RFO-DIIS IScMMF=        0 using points:     6    5
 RFO step:  Lambda=-1.27275780D-06.
 DidBck=F Rises=F RFO-DIIS coefs:    1.33015   -0.33015
 Iteration  1 RMS(Cart)=  0.00168058 RMS(Int)=  0.00000243
 Iteration  2 RMS(Cart)=  0.00000181 RMS(Int)=  0.00000160
 Iteration  3 RMS(Cart)=  0.00000000 RMS(Int)=  0.00000160
 Variable       Old X    -DE/DX   Delta X   Delta X   Delta X     New X
                                 (Linear)    (Quad)   (Total)
    R1        2.92456  -0.00021   0.00005  -0.00047  -0.00042   2.92414
    R2        2.52401  -0.00023  -0.00031  -0.00028  -0.00060   2.52341
    R3        2.52376   0.00002  -0.00022   0.00013  -0.00009   2.52368
    R4        2.52376   0.00002  -0.00022   0.00013  -0.00009   2.52368
    R5        2.26331  -0.00014  -0.00023   0.00017  -0.00005   2.26325
    R6        2.56645  -0.00036   0.00079  -0.00071   0.00008   2.56653
    R7        1.89805  -0.00021   0.00019  -0.00034  -0.00016   1.89790
    A1        1.96190   0.00016   0.00125   0.00041   0.00166   1.96357
    A2        1.97965  -0.00010  -0.00134   0.00019  -0.00115   1.97850
    A3        1.97965  -0.00010  -0.00134   0.00019  -0.00115   1.97850
    A4        1.84235  -0.00001   0.00035  -0.00018   0.00017   1.84252
    A5        1.84235  -0.00001   0.00035  -0.00018   0.00017   1.84252
    A6        1.84579   0.00007   0.00093  -0.00053   0.00039   1.84618
    A7        2.22990   0.00037   0.00181   0.00078   0.00260   2.23250
    A8        1.88056  -0.00004  -0.00070  -0.00007  -0.00076   1.87980
    A9        2.17272  -0.00033  -0.00112  -0.00072  -0.00183   2.17089
   A10        1.97146  -0.00028  -0.00081  -0.00072  -0.00153   1.96993
    D1        0.00002   0.00000   0.00001  -0.00015  -0.00014  -0.00012
    D2        3.14158   0.00000  -0.00001   0.00014   0.00013  -3.14147
    D3       -2.08845  -0.00003  -0.00040  -0.00035  -0.00075  -2.08920
    D4        1.05311  -0.00003  -0.00041  -0.00007  -0.00048   1.05264
    D5        2.08848   0.00003   0.00041   0.00006   0.00048   2.08895
    D6       -1.05314   0.00003   0.00040   0.00035   0.00075  -1.05239
    D7       -3.14158   0.00000   0.00001  -0.00015  -0.00014   3.14147
    D8       -0.00001   0.00000  -0.00001   0.00013   0.00012   0.00011
         Item               Value     Threshold  Converged?
 Maximum Force            0.000370     0.000450     YES
 RMS     Force            0.000165     0.000300     YES
 Maximum Displacement     0.004513     0.001800     NO 
 RMS     Displacement     0.001681     0.001200     NO 
 Predicted change in Energy=-1.429718D-06
 GradGradGradGradGradGradGradGradGradGradGradGradGradGradGradGradGradGrad

                          Input orientation:                          
 ---------------------------------------------------------------------
 Center     Atomic      Atomic             Coordinates (Angstroms)
 Number     Number       Type             X           Y           Z
 ---------------------------------------------------------------------
      1          6           0       -2.264481   -1.578260    0.675619
      2          6           0       -1.085531   -0.774918    1.274895
      3          8           0       -1.014992    0.407605    1.451127
      4          8           0       -0.099572   -1.656516    1.583506
      5          1           0        0.709456   -1.213788    1.981165
      6          9           0       -3.293882   -0.798534    0.335806
      7          9           0       -2.765824   -2.488329    1.514616
      8          9           0       -1.939844   -2.247014   -0.433825
 ---------------------------------------------------------------------
                    Distance matrix (angstroms):
                    1          2          3          4          5
     1  C    0.000000
     2  C    1.547389   0.000000
     3  O    2.471092   1.197662   0.000000
     4  O    2.348875   1.358150   2.261883   0.000000
     5  H    3.268270   1.978232   2.425608   1.004324   0.000000
     6  F    1.335333   2.399846   2.809280   3.535040   4.348144
     7  F    1.335473   2.411769   3.384654   2.793844   3.730911
     8  F    1.335473   2.411771   3.384583   2.793728   3.730754
                    6          7          8
     6  F    0.000000
     7  F    2.126933   0.000000
     8  F    2.126934   2.130000   0.000000
 Stoichiometry    C2HF3O2
 Framework group  C1[X(C2HF3O2)]
 Deg. of freedom    18
 Full point group                 C1      NOp   1
 Largest Abelian subgroup         C1      NOp   1
 Largest concise Abelian subgroup C1      NOp   1
                         Standard orientation:                         
 ---------------------------------------------------------------------
 Center     Atomic      Atomic             Coordinates (Angstroms)
 Number     Number       Type             X           Y           Z
 ---------------------------------------------------------------------
      1          6           0       -0.576957    0.008069    0.000007
      2          6           0        0.961032    0.178374    0.000100
      3          8           0        1.588479    1.198524   -0.000001
      4          8           0        1.513949   -1.062131    0.000008
      5          1           0        2.518068   -1.041887   -0.000055
      6          9           0       -1.220726    1.177973   -0.000059
      7          9           0       -1.036477   -0.653845    1.064994
      8          9           0       -1.036347   -0.653895   -1.065006
 ---------------------------------------------------------------------
 Rotational constants (GHZ):      3.9447400      2.4009091      2.0021698
 Standard basis: VSTO-6G (5D, 7F)
 There are    29 symmetry adapted cartesian basis functions of A   symmetry.
 There are    29 symmetry adapted basis functions of A   symmetry.
    29 basis functions,   174 primitive gaussians,    29 cartesian basis functions
    21 alpha electrons       21 beta electrons
       nuclear repulsion energy       242.5554076775 Hartrees.
 Integral buffers will be    262144 words long.
 Regular integral format.
 Two-electron integral symmetry is turned off.
 Do NDO integrals.
 One-electron integrals computed using PRISM.
 NBasis=    29 RedAO= F EigKep=  0.00D+00  NBF=    29
 NBsUse=    29 1.00D-04 EigRej=  0.00D+00 NBFU=    29
 Initial guess from the checkpoint file:  "D:\mindmap\gaussian\calculate\opt_freq\ch3cooh\3f.chk"
 B after Tr=     0.000000    0.000000    0.000000
         Rot=    1.000000    0.000009    0.000013   -0.000026 Ang=   0.00 deg.
 Overlap will be assumed to be unity.
 Keep J ints in memory in canonical form, NReq=884919.
 Requested convergence on RMS density matrix=1.00D-08 within 128 cycles.
 Requested convergence on MAX density matrix=1.00D-06.
 Requested convergence on             energy=1.00D-06.
 No special actions if energy rises.
 SCF Done:  E(RPM6) = -0.380610722708     A.U. after   11 cycles
            NFock= 10  Conv=0.35D-08     -V/T= 0.9880
 Calling FoFJK, ICntrl=      2127 FMM=F ISym2X=0 I1Cent= 0 IOpClX= 0 NMat=1 NMatS=1 NMatT=0.
 ***** Axes restored to original set *****
 -------------------------------------------------------------------
 Center     Atomic                   Forces (Hartrees/Bohr)
 Number     Number              X              Y              Z
 -------------------------------------------------------------------
      1        6           0.000125708    0.000202970    0.000086295
      2        6          -0.000090461   -0.000094188   -0.000075392
      3        8           0.000047488   -0.000009982    0.000028608
      4        8           0.000039094    0.000105505    0.000035681
      5        1          -0.000080451   -0.000040354   -0.000038203
      6        9          -0.000009307   -0.000007833   -0.000005090
      7        9          -0.000044641   -0.000087112    0.000049084
      8        9           0.000012570   -0.000069006   -0.000080983
 -------------------------------------------------------------------
 Cartesian Forces:  Max     0.000202970 RMS     0.000075690

 GradGradGradGradGradGradGradGradGradGradGradGradGradGradGradGradGradGrad
 Berny optimization.
 Using GEDIIS/GDIIS optimizer.
 FormGI is forming the generalized inverse of G from B-inverse, IUseBI=4.
 Internal  Forces:  Max     0.000106958 RMS     0.000048570
 Search for a local minimum.
 Step number   7 out of a maximum of   35
 All quantities printed in internal units (Hartrees-Bohrs-Radians)
 Mixed Optimization -- En-DIIS/RFO-DIIS
 Swapping is turned off.
 Update second derivatives using D2CorX and points    1    2    3    4    5
                                                      6    7
 DE= -1.58D-06 DEPred=-1.43D-06 R= 1.10D+00
 TightC=F SS=  1.41D+00  RLast= 4.57D-03 DXNew= 8.4853D-01 1.3714D-02
 Trust test= 1.10D+00 RLast= 4.57D-03 DXMaxT set to 5.05D-01
 ITU=  1  1  1  1  1  1  0
     Eigenvalues ---    0.00237   0.00485   0.01295   0.08196   0.10188
     Eigenvalues ---    0.12209   0.15242   0.19424   0.25001   0.25129
     Eigenvalues ---    0.26555   0.29474   0.49773   0.53691   0.54932
     Eigenvalues ---    0.55022   0.62368   0.89988
 En-DIIS/RFO-DIIS IScMMF=        0 using points:     7    6    5
 RFO step:  Lambda=-9.53008410D-08.
 DidBck=F Rises=F RFO-DIIS coefs:    1.22165   -0.27730    0.05565
 Iteration  1 RMS(Cart)=  0.00054531 RMS(Int)=  0.00000049
 Iteration  2 RMS(Cart)=  0.00000041 RMS(Int)=  0.00000037
 Variable       Old X    -DE/DX   Delta X   Delta X   Delta X     New X
                                 (Linear)    (Quad)   (Total)
    R1        2.92414  -0.00010  -0.00010  -0.00029  -0.00039   2.92375
    R2        2.52341   0.00000  -0.00008   0.00004  -0.00004   2.52338
    R3        2.52368   0.00011   0.00002   0.00018   0.00020   2.52388
    R4        2.52368   0.00010   0.00002   0.00018   0.00020   2.52387
    R5        2.26325   0.00000   0.00003  -0.00001   0.00002   2.26327
    R6        2.56653  -0.00007  -0.00012   0.00006  -0.00006   2.56647
    R7        1.89790  -0.00010  -0.00007  -0.00015  -0.00021   1.89768
    A1        1.96357   0.00002   0.00016   0.00008   0.00024   1.96381
    A2        1.97850   0.00002  -0.00003   0.00002  -0.00001   1.97849
    A3        1.97850   0.00002  -0.00003   0.00000  -0.00003   1.97847
    A4        1.84252  -0.00001  -0.00002   0.00000  -0.00002   1.84250
    A5        1.84252  -0.00001  -0.00002   0.00000  -0.00002   1.84250
    A6        1.84618  -0.00003  -0.00007  -0.00011  -0.00018   1.84600
    A7        2.23250   0.00006   0.00027   0.00013   0.00040   2.23289
    A8        1.87980   0.00000  -0.00005   0.00010   0.00005   1.87985
    A9        2.17089  -0.00007  -0.00022  -0.00023  -0.00045   2.17044
   A10        1.96993  -0.00001  -0.00020   0.00017  -0.00003   1.96989
    D1       -0.00012   0.00000  -0.00003   0.00110   0.00107   0.00094
    D2       -3.14147   0.00000   0.00003  -0.00105  -0.00102   3.14069
    D3       -2.08920   0.00000  -0.00010   0.00102   0.00092  -2.08828
    D4        1.05264  -0.00001  -0.00004  -0.00113  -0.00116   1.05147
    D5        2.08895   0.00001   0.00004   0.00116   0.00119   2.09015
    D6       -1.05239   0.00000   0.00010  -0.00099  -0.00089  -1.05329
    D7        3.14147   0.00000  -0.00003   0.00109   0.00106  -3.14065
    D8        0.00011   0.00000   0.00003  -0.00096  -0.00093  -0.00082
         Item               Value     Threshold  Converged?
 Maximum Force            0.000107     0.000450     YES
 RMS     Force            0.000049     0.000300     YES
 Maximum Displacement     0.001510     0.001800     YES
 RMS     Displacement     0.000545     0.001200     YES
 Predicted change in Energy=-9.630007D-08
 Optimization completed.
    -- Stationary point found.
                           ----------------------------
                           !   Optimized Parameters   !
                           ! (Angstroms and Degrees)  !
 --------------------------                            --------------------------
 ! Name  Definition              Value          Derivative Info.                !
 --------------------------------------------------------------------------------
 ! R1    R(1,2)                  1.5474         -DE/DX =   -0.0001              !
 ! R2    R(1,6)                  1.3353         -DE/DX =    0.0                 !
 ! R3    R(1,7)                  1.3355         -DE/DX =    0.0001              !
 ! R4    R(1,8)                  1.3355         -DE/DX =    0.0001              !
 ! R5    R(2,3)                  1.1977         -DE/DX =    0.0                 !
 ! R6    R(2,4)                  1.3581         -DE/DX =   -0.0001              !
 ! R7    R(4,5)                  1.0043         -DE/DX =   -0.0001              !
 ! A1    A(2,1,6)              112.5041         -DE/DX =    0.0                 !
 ! A2    A(2,1,7)              113.3596         -DE/DX =    0.0                 !
 ! A3    A(2,1,8)              113.3597         -DE/DX =    0.0                 !
 ! A4    A(6,1,7)              105.5686         -DE/DX =    0.0                 !
 ! A5    A(6,1,8)              105.5686         -DE/DX =    0.0                 !
 ! A6    A(7,1,8)              105.7784         -DE/DX =    0.0                 !
 ! A7    A(1,2,3)              127.9126         -DE/DX =    0.0001              !
 ! A8    A(1,2,4)              107.7047         -DE/DX =    0.0                 !
 ! A9    A(3,2,4)              124.3828         -DE/DX =   -0.0001              !
 ! A10   A(2,4,5)              112.8684         -DE/DX =    0.0                 !
 ! D1    D(6,1,2,3)             -0.0071         -DE/DX =    0.0                 !
 ! D2    D(6,1,2,4)            180.0068         -DE/DX =    0.0                 !
 ! D3    D(7,1,2,3)           -119.7024         -DE/DX =    0.0                 !
 ! D4    D(7,1,2,4)             60.3116         -DE/DX =    0.0                 !
 ! D5    D(8,1,2,3)            119.6883         -DE/DX =    0.0                 !
 ! D6    D(8,1,2,4)            -60.2978         -DE/DX =    0.0                 !
 ! D7    D(1,2,4,5)           -180.0071         -DE/DX =    0.0                 !
 ! D8    D(3,2,4,5)              0.0062         -DE/DX =    0.0                 !
 --------------------------------------------------------------------------------
 GradGradGradGradGradGradGradGradGradGradGradGradGradGradGradGradGradGrad

                          Input orientation:                          
 ---------------------------------------------------------------------
 Center     Atomic      Atomic             Coordinates (Angstroms)
 Number     Number       Type             X           Y           Z
 ---------------------------------------------------------------------
      1          6           0       -2.264481   -1.578260    0.675619
      2          6           0       -1.085531   -0.774918    1.274895
      3          8           0       -1.014992    0.407605    1.451127
      4          8           0       -0.099572   -1.656516    1.583506
      5          1           0        0.709456   -1.213788    1.981165
      6          9           0       -3.293882   -0.798534    0.335806
      7          9           0       -2.765824   -2.488329    1.514616
      8          9           0       -1.939844   -2.247014   -0.433825
 ---------------------------------------------------------------------
                    Distance matrix (angstroms):
                    1          2          3          4          5
     1  C    0.000000
     2  C    1.547389   0.000000
     3  O    2.471092   1.197662   0.000000
     4  O    2.348875   1.358150   2.261883   0.000000
     5  H    3.268270   1.978232   2.425608   1.004324   0.000000
     6  F    1.335333   2.399846   2.809280   3.535040   4.348144
     7  F    1.335473   2.411769   3.384654   2.793844   3.730911
     8  F    1.335473   2.411771   3.384583   2.793728   3.730754
                    6          7          8
     6  F    0.000000
     7  F    2.126933   0.000000
     8  F    2.126934   2.130000   0.000000
 Stoichiometry    C2HF3O2
 Framework group  C1[X(C2HF3O2)]
 Deg. of freedom    18
 Full point group                 C1      NOp   1
 Largest Abelian subgroup         C1      NOp   1
 Largest concise Abelian subgroup C1      NOp   1
                         Standard orientation:                         
 ---------------------------------------------------------------------
 Center     Atomic      Atomic             Coordinates (Angstroms)
 Number     Number       Type             X           Y           Z
 ---------------------------------------------------------------------
      1          6           0       -0.576957    0.008069    0.000007
      2          6           0        0.961032    0.178374    0.000100
      3          8           0        1.588479    1.198524   -0.000001
      4          8           0        1.513949   -1.062131    0.000008
      5          1           0        2.518068   -1.041887   -0.000055
      6          9           0       -1.220726    1.177973   -0.000059
      7          9           0       -1.036477   -0.653845    1.064994
      8          9           0       -1.036347   -0.653895   -1.065006
 ---------------------------------------------------------------------
 Rotational constants (GHZ):      3.9447400      2.4009091      2.0021698

 **********************************************************************

            Population analysis using the SCF density.

 **********************************************************************

 Orbital symmetries:
       Occupied  (A) (A) (A) (A) (A) (A) (A) (A) (A) (A) (A) (A)
                 (A) (A) (A) (A) (A) (A) (A) (A) (A)
       Virtual   (A) (A) (A) (A) (A) (A) (A) (A)
 The electronic state is 1-A.
 Alpha  occ. eigenvalues --   -1.59170  -1.58620  -1.58556  -1.24053  -1.17972
 Alpha  occ. eigenvalues --   -1.00112  -0.84954  -0.74581  -0.73358  -0.71835
 Alpha  occ. eigenvalues --   -0.68311  -0.64337  -0.64002  -0.63055  -0.62268
 Alpha  occ. eigenvalues --   -0.61434  -0.58778  -0.58640  -0.53377  -0.48630
 Alpha  occ. eigenvalues --   -0.45063
 Alpha virt. eigenvalues --   -0.03106  -0.00605   0.04105   0.06705   0.06935
 Alpha virt. eigenvalues --    0.07389   0.10928   0.14236
          Condensed to atoms (all electrons):
               1          2          3          4          5          6
     1  C    3.624141   0.000000   0.000000   0.000000   0.000000   0.000000
     2  C    0.000000   3.462004   0.000000   0.000000   0.000000   0.000000
     3  O    0.000000   0.000000   6.401579   0.000000   0.000000   0.000000
     4  O    0.000000   0.000000   0.000000   6.468595   0.000000   0.000000
     5  H    0.000000   0.000000   0.000000   0.000000   0.647172   0.000000
     6  F    0.000000   0.000000   0.000000   0.000000   0.000000   7.131808
[...]
 Frc consts  --      4.4226                 5.5765                13.8451
 IR Inten    --    134.1147                29.5227               134.7685
  Atom  AN      X      Y      Z        X      Y      Z        X      Y      Z
     1   6     0.41   0.11   0.00     0.33  -0.26   0.00     0.00   0.00   0.88
     2   6     0.11  -0.13   0.00    -0.30   0.23   0.00     0.00   0.00  -0.06
     3   8    -0.04  -0.04   0.00     0.00  -0.03   0.00     0.00   0.00   0.01
     4   8    -0.13   0.08   0.00     0.12  -0.09   0.00     0.00   0.00   0.00
     5   1     0.03   0.83   0.00    -0.09  -0.78   0.00     0.00   0.00   0.09
     6   9    -0.06   0.10   0.00    -0.09   0.17   0.00     0.00   0.00  -0.01
     7   9    -0.06  -0.08   0.13    -0.01   0.00   0.01     0.11   0.16  -0.26
     8   9    -0.06  -0.08  -0.13    -0.01   0.00  -0.01    -0.11  -0.16  -0.26
                     16                     17                     18
                      A                      A                      A
 Frequencies --   1341.8882              1847.0770              2534.5769
 Red. masses --      6.0956                11.9022                 1.0526
 Frc consts  --      6.4669                23.9247                 3.9842
 IR Inten    --    182.2179               418.7881               394.7134
  Atom  AN      X      Y      Z        X      Y      Z        X      Y      Z
     1   6     0.07   0.52   0.00    -0.06   0.00   0.00     0.00   0.00   0.00
     2   6    -0.20   0.13   0.00     0.43   0.65   0.00    -0.01   0.01   0.00
     3   8    -0.01  -0.02   0.00    -0.27  -0.45   0.00     0.00   0.00   0.00
     4   8     0.11  -0.05   0.00     0.00  -0.05   0.00    -0.05   0.00   0.00
     5   1    -0.05  -0.76   0.00    -0.01   0.33   0.00     0.99  -0.13   0.00
     6   9     0.09  -0.17   0.00     0.01  -0.01   0.00     0.00   0.00   0.00
     7   9    -0.04  -0.07   0.10    -0.01   0.00   0.00     0.00   0.00   0.00
     8   9    -0.04  -0.07  -0.10    -0.01   0.00   0.00     0.00   0.00   0.00

 -------------------
 - Thermochemistry -
 -------------------
 Temperature   298.150 Kelvin.  Pressure   1.00000 Atm.
 Atom     1 has atomic number  6 and mass  12.00000
 Atom     2 has atomic number  6 and mass  12.00000
 Atom     3 has atomic number  8 and mass  15.99491
 Atom     4 has atomic number  8 and mass  15.99491
 Atom     5 has atomic number  1 and mass   1.00783
 Atom     6 has atomic number  9 and mass  18.99840
 Atom     7 has atomic number  9 and mass  18.99840
 Atom     8 has atomic number  9 and mass  18.99840
 Molecular mass:   113.99286 amu.
 Principal axes and moments of inertia in atomic units:
                           1         2         3
     Eigenvalues --   457.50574 751.69077 901.39266
           X            0.99951  -0.03115   0.00000
           Y            0.03115   0.99951   0.00000
           Z            0.00000   0.00000   1.00000
 This molecule is an asymmetric top.
 Rotational symmetry number  1.
 Warning -- assumption of classical behavior for rotation
           may cause significant error
 Rotational temperatures (Kelvin)      0.18932     0.11523     0.09609
 Rotational constants (GHZ):           3.94474     2.40091     2.00217
    1 imaginary frequencies ignored.
 Zero-point vibrational energy      91969.8 (Joules/Mol)
                                   21.98130 (Kcal/Mol)
 Warning -- explicit consideration of   8 degrees of freedom as
           vibrations may cause significant error
 Vibrational temperatures:    245.59   303.93   480.39   532.61   641.02
          (Kelvin)            733.97   781.97   822.60   963.04  1209.56
                             1607.04  1773.50  1888.48  1904.23  1930.68
                             2657.53  3646.69
 
 Zero-point correction=                           0.035029 (Hartree/Particle)
 Thermal correction to Energy=                    0.040849
 Thermal correction to Enthalpy=                  0.041794
 Thermal correction to Gibbs Free Energy=         0.005060
 Sum of electronic and zero-point Energies=             -0.345581
 Sum of electronic and thermal Energies=                -0.339761
 Sum of electronic and thermal Enthalpies=              -0.338817
 Sum of electronic and thermal Free Energies=           -0.375551
 
                     E (Thermal)             CV                S
                      KCal/Mol        Cal/Mol-Kelvin    Cal/Mol-Kelvin
 Total                   25.633             20.006             77.313
 Electronic               0.000              0.000              0.000
 Translational            0.889              2.981             40.108
 Rotational               0.889              2.981             27.230
 Vibrational             23.856             14.044              9.974
 Vibration     1          0.626              1.879              2.428
 Vibration     2          0.643              1.824              2.033
 Vibration     3          0.715              1.608              1.241
 Vibration     4          0.742              1.533              1.079
 Vibration     5          0.805              1.371              0.809
 Vibration     6          0.865              1.228              0.633
 Vibration     7          0.899              1.154              0.558
 Vibration     8          0.928              1.092              0.501
                       Q            Log10(Q)             Ln(Q)
 Total Bot       0.470597D-02         -2.327351         -5.358923
 Total V=0       0.609585D+14         13.785034         31.741214
 Vib (Bot)       0.493579D-15        -15.306644        -35.244849
 Vib (Bot)    1  0.118035D+01          0.072011          0.165813
 Vib (Bot)    2  0.939757D+00         -0.026984         -0.062134
 Vib (Bot)    3  0.558267D+00         -0.253158         -0.582917
 Vib (Bot)    4  0.491751D+00         -0.308255         -0.709783
 Vib (Bot)    5  0.386293D+00         -0.413083         -0.951158
 Vib (Bot)    6  0.319267D+00         -0.495845         -1.141726
 Vib (Bot)    7  0.290545D+00         -0.536786         -1.235995
 Vib (Bot)    8  0.268726D+00         -0.570691         -1.314064
 Vib (V=0)       0.639354D+01          0.805741          1.855288
 Vib (V=0)    1  0.178189D+01          0.250880          0.577672
 Vib (V=0)    2  0.156449D+01          0.194373          0.447561
 Vib (V=0)    3  0.124944D+01          0.096716          0.222697
 Vib (V=0)    4  0.120130D+01          0.079651          0.183403
 Vib (V=0)    5  0.113184D+01          0.053785          0.123845
 Vib (V=0)    6  0.109324D+01          0.038715          0.089144
 Vib (V=0)    7  0.107829D+01          0.032735          0.075374
 Vib (V=0)    8  0.106764D+01          0.028424          0.065449
 Electronic      0.100000D+01          0.000000          0.000000
 Translational   0.478379D+08          7.679772         17.683328
 Rotational      0.199306D+06          5.299521         12.202599
 ***** Axes restored to original set *****
 -------------------------------------------------------------------
 Center     Atomic                   Forces (Hartrees/Bohr)
 Number     Number              X              Y              Z
 -------------------------------------------------------------------
      1        6           0.000125708    0.000202970    0.000086296
      2        6          -0.000090461   -0.000094188   -0.000075392
      3        8           0.000047488   -0.000009981    0.000028609
      4        8           0.000039094    0.000105503    0.000035680
      5        1          -0.000080451   -0.000040353   -0.000038203
      6        9          -0.000009307   -0.000007833   -0.000005090
      7        9          -0.000044642   -0.000087112    0.000049084
      8        9           0.000012570   -0.000069006   -0.000080983
 -------------------------------------------------------------------
 Cartesian Forces:  Max     0.000202970 RMS     0.000075689
 FormGI is forming the generalized inverse of G from B-inverse, IUseBI=4.

 GradGradGradGradGradGradGradGradGradGradGradGradGradGradGradGradGradGrad
 Berny optimization.
 Internal  Forces:  Max     0.000106958 RMS     0.000048570
 Search for a local minimum.
 Step number   1 out of a maximum of    2
 All quantities printed in internal units (Hartrees-Bohrs-Radians)
 Second derivative matrix not updated -- analytic derivatives used.
 ITU=  0
     Eigenvalues ---   -0.00034   0.01460   0.03363   0.07759   0.08337
     Eigenvalues ---    0.10838   0.12307   0.15968   0.16253   0.17258
     Eigenvalues ---    0.18852   0.24957   0.33979   0.47046   0.47101
     Eigenvalues ---    0.48325   0.66623   0.95579
 Eigenvalue     1 is  -3.44D-04 should be greater than     0.000000 Eigenvector:
                          D4        D6        D2        D3        D5
   1                    0.41182   0.41182   0.40787   0.40726   0.40726
                          D1        A3        A2        D8        R4
   1                    0.40331   0.00423  -0.00423   0.00401  -0.00186
 Angle between quadratic step and forces=  34.46 degrees.
 Linear search not attempted -- first point.
 Iteration  1 RMS(Cart)=  0.00025155 RMS(Int)=  0.00000007
 Iteration  2 RMS(Cart)=  0.00000006 RMS(Int)=  0.00000002
 Variable       Old X    -DE/DX   Delta X   Delta X   Delta X     New X
                                 (Linear)    (Quad)   (Total)
    R1        2.92414  -0.00010   0.00000  -0.00052  -0.00052   2.92362
    R2        2.52341   0.00000   0.00000  -0.00001  -0.00001   2.52340
    R3        2.52368   0.00011   0.00000   0.00027   0.00027   2.52395
    R4        2.52368   0.00010   0.00000   0.00027   0.00027   2.52395
    R5        2.26325   0.00000   0.00000   0.00004   0.00004   2.26330
    R6        2.56653  -0.00007   0.00000  -0.00003  -0.00003   2.56650
    R7        1.89790  -0.00010   0.00000  -0.00045  -0.00045   1.89745
    A1        1.96357   0.00002   0.00000   0.00029   0.00029   1.96385
    A2        1.97850   0.00002   0.00000   0.00010   0.00010   1.97860
    A3        1.97850   0.00002   0.00000   0.00010   0.00010   1.97860
    A4        1.84252  -0.00001   0.00000  -0.00010  -0.00010   1.84242
    A5        1.84252  -0.00001   0.00000  -0.00010  -0.00010   1.84242
    A6        1.84618  -0.00003   0.00000  -0.00034  -0.00034   1.84585
    A7        2.23250   0.00006   0.00000   0.00047   0.00047   2.23296
    A8        1.87980   0.00000   0.00000   0.00000   0.00000   1.87981
    A9        2.17089  -0.00007   0.00000  -0.00047  -0.00047   2.17042
   A10        1.96993  -0.00001   0.00000   0.00010   0.00010   1.97003
    D1       -0.00012   0.00000   0.00000   0.00012   0.00012   0.00000
    D2       -3.14147   0.00000   0.00000  -0.00012  -0.00012   3.14159
    D3       -2.08920   0.00000   0.00000  -0.00003  -0.00003  -2.08923
    D4        1.05264  -0.00001   0.00000  -0.00027  -0.00027   1.05236
    D5        2.08895   0.00001   0.00000   0.00027   0.00027   2.08922
    D6       -1.05239   0.00000   0.00000   0.00002   0.00002  -1.05237
    D7        3.14147   0.00000   0.00000   0.00012   0.00012   3.14159
    D8        0.00011   0.00000   0.00000  -0.00011  -0.00011   0.00000
         Item               Value     Threshold  Converged?
 Maximum Force            0.000107     0.000450     YES
 RMS     Force            0.000049     0.000300     YES
 Maximum Displacement     0.000683     0.001800     YES
 RMS     Displacement     0.000252     0.001200     YES
 Predicted change in Energy=-1.228829D-07
 Optimization completed.
    -- Stationary point found.
                           ----------------------------
                           !   Optimized Parameters   !
                           ! (Angstroms and Degrees)  !
 --------------------------                            --------------------------
 ! Name  Definition              Value          Derivative Info.                !
 --------------------------------------------------------------------------------
 ! R1    R(1,2)                  1.5474         -DE/DX =   -0.0001              !
 ! R2    R(1,6)                  1.3353         -DE/DX =    0.0                 !
 ! R3    R(1,7)                  1.3355         -DE/DX =    0.0001              !
 ! R4    R(1,8)                  1.3355         -DE/DX =    0.0001              !
 ! R5    R(2,3)                  1.1977         -DE/DX =    0.0                 !
 ! R6    R(2,4)                  1.3581         -DE/DX =   -0.0001              !
 ! R7    R(4,5)                  1.0043         -DE/DX =   -0.0001              !
 ! A1    A(2,1,6)              112.5041         -DE/DX =    0.0                 !
 ! A2    A(2,1,7)              113.3596         -DE/DX =    0.0                 !
 ! A3    A(2,1,8)              113.3597         -DE/DX =    0.0                 !
 ! A4    A(6,1,7)              105.5686         -DE/DX =    0.0                 !
 ! A5    A(6,1,8)              105.5686         -DE/DX =    0.0                 !
 ! A6    A(7,1,8)              105.7784         -DE/DX =    0.0                 !
 ! A7    A(1,2,3)              127.9126         -DE/DX =    0.0001              !
 ! A8    A(1,2,4)              107.7047         -DE/DX =    0.0                 !
 ! A9    A(3,2,4)              124.3828         -DE/DX =   -0.0001              !
 ! A10   A(2,4,5)              112.8684         -DE/DX =    0.0                 !
 ! D1    D(6,1,2,3)             -0.0071         -DE/DX =    0.0                 !
 ! D2    D(6,1,2,4)            180.0068         -DE/DX =    0.0                 !
 ! D3    D(7,1,2,3)           -119.7024         -DE/DX =    0.0                 !
 ! D4    D(7,1,2,4)             60.3116         -DE/DX =    0.0                 !
 ! D5    D(8,1,2,3)            119.6883         -DE/DX =    0.0                 !
 ! D6    D(8,1,2,4)            -60.2978         -DE/DX =    0.0                 !
 ! D7    D(1,2,4,5)            179.9929         -DE/DX =    0.0                 !
 ! D8    D(3,2,4,5)              0.0062         -DE/DX =    0.0                 !
 --------------------------------------------------------------------------------
 GradGradGradGradGradGradGradGradGradGradGradGradGradGradGradGradGradGrad

 1|1|UNPC-DESKTOP-KC5UJLK|Freq|RPM6|ZDO|C2H1F3O2|23122|18-Mar-2022|0||#
 N Geom=AllCheck Guess=TCheck SCRF=Check GenChk RPM6/ZDO Freq||opt freq
 (GC)||0,1|C,-2.2644805111,-1.5782602093,0.6756192678|C,-1.0855307419,-
 0.7749182322,1.2748948947|O,-1.0149916946,0.4076051481,1.4511272935|O,
 -0.0995716734,-1.6565161383,1.5835063332|H,0.7094561382,-1.213787741,1
 .9811646277|F,-3.2938820439,-0.7985341949,0.3358061506|F,-2.7658244084
 ,-2.488328997,1.5146162815|F,-1.9398438449,-2.2470143354,-0.433824999|
 |Version=IA32W-G09RevD.01|State=1-A|HF=-0.3806107|RMSD=3.271e-010|RMSF
 =7.569e-005|ZeroPoint=0.0350294|Thermal=0.0408493|Dipole=0.7014845,-0.
 1432513,0.2796417|DipoleDeriv=0.962353,-0.0213426,-0.1103184,-0.062502
 1,0.9080453,-0.0646967,-0.1154231,-0.0472547,1.1615464,1.4462239,-0.35
 27507,0.4231251,-0.327438,1.9458089,0.0595201,0.4261915,0.0487249,0.53
 15519,-0.5939807,-0.143927,-0.1150693,0.1238214,-1.2604405,-0.0584917,
 -0.0819079,-0.1718459,-0.4205433,-1.3107113,0.5568756,-0.2820163,0.057
 4395,-0.7789211,-0.0123449,-0.3437956,0.1992692,-0.6036306,0.5423745,-
 0.0407432,0.0558081,0.2070044,0.1709383,0.059511,0.0864909,-0.0454844,
 0.4298141,-0.4200064,0.1422961,-0.0513348,0.0252141,-0.3457012,-0.0002
 511,-0.0658368,0.0493754,-0.2791279,-0.3102914,-0.1062562,0.0682438,-0
 .05987,-0.3447025,0.1320753,0.0027967,0.0576666,-0.3878135,-0.3159581,
 -0.0341459,0.0115639,0.0363346,-0.2950335,-0.1153212,0.0914853,-0.0904
 451,-0.4317951|Polar=30.7695215,-2.1445573,41.2869154,5.6508932,2.1215
 629,19.4662508|HyperPolar=3.2934689,12.8378181,-43.3439507,-38.8527765
 ,-1.5560293,-2.1552142,-24.0835177,3.2856765,-0.5455675,6.7892314|PG=C
 01 [X(C2H1F3O2)]|NImag=1||0.55150890,-0.02473248,0.56518464,-0.0085272
 7,-0.01038887,0.55947928,-0.11253534,-0.05882384,-0.03086773,0.4494098
 5,-0.05815292,-0.05593346,-0.02453132,0.01110853,0.97995207,-0.0307844
 7,-0.02481456,-0.07303103,0.12392758,0.10617817,0.22588679,-0.00282386
 ,-0.02295992,-0.01019700,-0.05023777,-0.04698357,-0.00433367,0.0560785
 9,-0.01516520,-0.04528045,-0.01383272,-0.06856978,-0.75597115,-0.11596
 158,0.03123841,0.90083891,-0.00923283,-0.01713581,0.00849174,-0.007004
 78,-0.10681815,-0.06991824,0.01833737,0.12201803,0.04480395,-0.0437856
 2,0.01171973,-0.01805527,-0.18949344,0.10767791,-0.05042358,-0.0018932
 9,0.06245863,-0.00124258,0.36569597,0.00008082,0.00770661,0.00071170,0
 .10638888,-0.15840448,0.03029395,0.04496017,-0.09192671,0.00528591,-0.
 09980447,0.31284783,-0.01949523,0.00564311,-0.00532621,-0.05058836,0.0
 3084241,-0.05663478,-0.00340690,0.01269853,0.01940985,0.13098205,-0.00
 694634,0.08208291,-0.00252767,0.00153288,-0.00358693,-0.05321946,0.002
 76380,-0.02239971,0.00082879,-0.00382147,0.00116868,-0.12762148,-0.047
 18034,-0.05451711,0.18187376,0.00431012,-0.00537059,0.00037066,0.02559
 825,0.02391715,0.01375392,-0.00152383,-0.00937035,-0.00142829,-0.07631
 779,-0.07174938,-0.03964823,0.04644759,0.06099895,-0.00324396,-0.00080
 676,0.00491069,-0.01957059,0.00407881,-0.00734191,0.00145300,-0.002402
 72,-0.00272665,-0.05812588,-0.02730077,-0.04076878,0.07864858,0.026018
 31,0.04639845,-0.25018108,0.15023569,-0.07384654,-0.03578884,0.0122589
 4,-0.01582902,0.00246662,-0.00010193,0.00103731,-0.00386718,-0.0046076
 5,-0.00236919,-0.00012591,0.00150835,0.00030332,0.31340396,0.15554155,
 -0.14299705,0.05220084,0.00517586,0.00303239,0.00193391,-0.00033550,0.
 00199782,0.00010624,-0.00304556,0.00051693,-0.00127314,-0.00008217,0.0
 0076440,0.00010951,-0.21777410,0.22865062,-0.07318929,0.04995172,-0.05
 692945,-0.01670511,0.00493717,-0.00134098,0.00100800,0.00020534,0.0004
 4353,-0.00217649,-0.00193597,-0.00078509,0.00010612,0.00078373,-0.0002
 5833,0.08122386,-0.07120553,0.08379214,-0.08971226,-0.09556734,0.08250
 971,-0.01384317,-0.02273969,0.01255055,-0.00213262,-0.00272941,-0.0031
 6252,0.00075691,0.00028104,-0.00068886,0.00062669,0.00006764,-0.000238
 19,0.00545337,0.01967535,-0.01506031,0.10737311,-0.09841560,-0.1992692
 6,0.14611351,-0.01908076,-0.02244166,0.01164528,-0.00179294,0.00005268
 ,-0.00239332,-0.00105954,0.00062241,-0.00125296,0.00036646,0.00046576,
 -0.00030077,0.01842554,-0.05380648,0.04100722,0.10427243,0.26412542,0.
 08480012,0.14698393,-0.16129759,0.00493312,0.00706389,0.00511252,0.000
 13511,-0.00153686,-0.00052666,-0.00057452,-0.00036303,0.00061694,0.000
 37474,0.00007245,-0.00039828,-0.01426772,0.04116615,-0.02304517,-0.108
 67211,-0.20491488,0.25147952,-0.04994240,0.03859642,0.06257092,0.00570
 832,-0.00593325,-0.01270893,-0.00228655,-0.00330972,0.00009988,0.00020
 772,-0.00011773,0.00008446,0.00016516,-0.00009042,0.00077341,-0.031361
 23,0.04084507,0.02479335,-0.00852143,-0.00271624,0.03327168,0.08602991
 ,0.03653524,-0.12404012,-0.15064328,-0.00179768,-0.01415108,-0.0230297
 3,-0.00260310,-0.00033995,0.00036553,-0.00162829,0.00038659,-0.0000628
 6,-0.00002666,0.00034402,0.00060437,0.04005515,-0.03815985,-0.02374377
 ,-0.00326086,0.01025135,0.01152897,-0.06727467,0.16570938,0.05967289,-
 0.14943240,-0.27629614,-0.00412533,-0.02175195,-0.02272993,-0.00299533
 ,-0.00118763,0.00002128,-0.00038298,0.00025525,0.00140333,0.00020531,0
 .00007733,0.00018526,0.02374803,-0.02303786,-0.00187705,0.03276044,0.0
 1009539,-0.07194216,-0.10888325,0.18498085,0.37123554||-0.00012571,-0.
 00020297,-0.00008630,0.00009046,0.00009419,0.00007539,-0.00004749,0.00
 000998,-0.00002861,-0.00003909,-0.00010550,-0.00003568,0.00008045,0.00
 004035,0.00003820,0.00000931,0.00000783,0.00000509,0.00004464,0.000087
 11,-0.00004908,-0.00001257,0.00006901,0.00008098|||@


 IF AT FIRST YOU DON'T SUCCEED, TRY LOOKING IN 
 THE WASTEBASKET FOR THE DIRECTIONS.
 Job cpu time:       0 days  0 hours  0 minutes  5.0 seconds.
 File lengths (MBytes):  RWF=      5 Int=      0 D2E=      0 Chk=      1 Scr=      1
 Normal termination of Gaussian 09 at Fri Mar 18 11:36:18 2022.
