 Entering Link 1 = C:\G09W\l1.exe PID=     11432.
  
 Copyright (c) 1988,1990,1992,1993,1995,1998,2003,2009,2013,
            Gaussian, Inc.  All Rights Reserved.
  
 This is part of the Gaussian(R) 09 program.  It is based on
 the Gaussian(R) 03 system (copyright 2003, Gaussian, Inc.),
 the Gaussian(R) 98 system (copyright 1998, Gaussian, Inc.),
 the Gaussian(R) 94 system (copyright 1995, Gaussian, Inc.),
 the Gaussian 92(TM) system (copyright 1992, Gaussian, Inc.),
 the Gaussian 90(TM) system (copyright 1990, Gaussian, Inc.),
 the Gaussian 88(TM) system (copyright 1988, Gaussian, Inc.),
 the Gaussian 86(TM) system (copyright 1986, Carnegie Mellon
 University), and the Gaussian 82(TM) system (copyright 1983,
 Carnegie Mellon University). Gaussian is a federally registered
 trademark of Gaussian, Inc.
  
 This software contains proprietary and confidential information,
 including trade secrets, belonging to Gaussian, Inc.
  
 This software is provided under written license and may be
 used, copied, transmitted, or stored only in accord with that
 written license.
  
 The following legend is applicable only to US Government
 contracts under FAR:
  
                    RESTRICTED RIGHTS LEGEND
  
 Use, reproduction and disclosure by the US Government is
 subject to restrictions as set forth in subparagraphs (a)
 and (c) of the Commercial Computer Software - Restricted
 Rights clause in FAR 52.227-19.
  
 Gaussian, Inc.
 340 Quinnipiac St., Bldg. 40, Wallingford CT 06492
  
  
 ---------------------------------------------------------------
 Warning -- This program may not be used in any manner that
 competes with the business of Gaussian, Inc. or will provide
 assistance to any competitor of Gaussian, Inc.  The licensee
 of this program is prohibited from giving any competitor of
 Gaussian, Inc. access to this program.  By using this program,
 the user acknowledges that Gaussian, Inc. is engaged in the
 business of creating and licensing software in the field of
 computational chemistry and represents and warrants to the
 licensee that it is not a competitor of Gaussian, Inc. and that
 it will not use this program in any manner prohibited above.
 ---------------------------------------------------------------
  

 Cite this work as:
 Gaussian 09, Revision D.01,
 M. J. Frisch, G. W. Trucks, H. B. Schlegel, G. E. Scuseria, 
 M. A. Robb, J. R. Cheeseman, G. Scalmani, V. Barone, B. Mennucci, 
 G. A. Petersson, H. Nakatsuji, M. Caricato, X. Li, H. P. Hratchian, 
 A. F. Izmaylov, J. Bloino, G. Zheng, J. L. Sonnenberg, M. Hada, 
 M. Ehara, K. Toyota, R. Fukuda, J. Hasegawa, M. Ishida, T. Nakajima, 
 Y. Honda, O. Kitao, H. Nakai, T. Vreven, J. A. Montgomery, Jr., 
 J. E. Peralta, F. Ogliaro, M. Bearpark, J. J. Heyd, E. Brothers, 
 K. N. Kudin, V. N. Staroverov, T. Keith, R. Kobayashi, J. Normand, 
 K. Raghavachari, A. Rendell, J. C. Burant, S. S. Iyengar, J. Tomasi, 
 M. Cossi, N. Rega, J. M. Millam, M. Klene, J. E. Knox, J. B. Cross, 
 V. Bakken, C. Adamo, J. Jaramillo, R. Gomperts, R. E. Stratmann, 
 O. Yazyev, A. J. Austin, R. Cammi, C. Pomelli, J. W. Ochterski, 
 R. L. Martin, K. Morokuma, V. G. Zakrzewski, G. A. Voth, 
 P. Salvador, J. J. Dannenberg, S. Dapprich, A. D. Daniels, 
 O. Farkas, J. B. Foresman, J. V. Ortiz, J. Cioslowski, 
 and D. J. Fox, Gaussian, Inc., Wallingford CT, 2013.
 
 ******************************************
 Gaussian 09:  IA32W-G09RevD.01 24-Apr-2013
                13-Mar-2022 
 ******************************************
 %nprocshared=4
 Will use up to    4 processors via shared memory.
 %mem=1GB
 --------------
 # opt freq pm6
 --------------
 1/14=-1,18=20,19=15,26=1,38=1/1,3;
 2/9=110,12=2,17=6,18=5,40=1/2;
 3/5=2,16=1,25=1,41=3900000,71=1/1,2,3;
 4/35=1/1;
 5/5=2,35=1,38=5/2;
 6/7=2,8=2,9=2,10=2,28=1/1;
 7//1,2,3,16;
 1/14=-1,18=20,19=15,26=1/3(2);
 2/9=110/2;
 99//99;
 2/9=110/2;
 3/5=2,16=1,25=1,41=3900000,71=1,135=20/1,2,3;
 4/5=5,16=3,35=1/1;
 5/5=2,35=1,38=5/2;
 7//1,2,3,16;
 1/14=-1,18=20,19=15,26=1/3(-5);
 2/9=110/2;
 6/7=2,8=2,9=2,10=2,19=2,28=1/1;
 99/9=1/99;
 ------------
 opt freq(GC)
 ------------
 Symbolic Z-matrix:
 Charge =  0 Multiplicity = 1
 C                    -1.60221  -1.62983   0. 
 H                    -1.24556  -2.63864   0. 
 H                    -1.24554  -1.12544  -0.87365 
 H                    -2.67221  -1.62982   0. 
 C                    -1.08887  -0.90388   1.2574 
 O                    -1.39024   0.30086   1.46078 
 O                    -0.26691  -1.60118   2.19711 
 H                     0.65764  -1.43274   2.00105 
 

 GradGradGradGradGradGradGradGradGradGradGradGradGradGradGradGradGradGrad
 Berny optimization.
 Initialization pass.
                           ----------------------------
                           !    Initial Parameters    !
                           ! (Angstroms and Degrees)  !
 --------------------------                            --------------------------
 ! Name  Definition              Value          Derivative Info.                !
 --------------------------------------------------------------------------------
 ! R1    R(1,2)                  1.07           estimate D2E/DX2                !
 ! R2    R(1,3)                  1.07           estimate D2E/DX2                !
 ! R3    R(1,4)                  1.07           estimate D2E/DX2                !
 ! R4    R(1,5)                  1.54           estimate D2E/DX2                !
 ! R5    R(5,6)                  1.2584         estimate D2E/DX2                !
 ! R6    R(5,7)                  1.43           estimate D2E/DX2                !
 ! R7    R(7,8)                  0.96           estimate D2E/DX2                !
 ! A1    A(2,1,3)              109.4712         estimate D2E/DX2                !
 ! A2    A(2,1,4)              109.4712         estimate D2E/DX2                !
 ! A3    A(2,1,5)              109.4712         estimate D2E/DX2                !
 ! A4    A(3,1,4)              109.4712         estimate D2E/DX2                !
 ! A5    A(3,1,5)              109.4713         estimate D2E/DX2                !
 ! A6    A(4,1,5)              109.4712         estimate D2E/DX2                !
 ! A7    A(1,5,6)              120.2269         estimate D2E/DX2                !
 ! A8    A(1,5,7)              119.8865         estimate D2E/DX2                !
 ! A9    A(6,5,7)              119.8865         estimate D2E/DX2                !
 ! A10   A(5,7,8)              109.5            estimate D2E/DX2                !
 ! D1    D(2,1,5,6)            179.9997         estimate D2E/DX2                !
 ! D2    D(2,1,5,7)             -0.0003         estimate D2E/DX2                !
 ! D3    D(3,1,5,6)             59.9997         estimate D2E/DX2                !
 ! D4    D(3,1,5,7)           -120.0003         estimate D2E/DX2                !
 ! D5    D(4,1,5,6)            -60.0003         estimate D2E/DX2                !
 ! D6    D(4,1,5,7)            119.9997         estimate D2E/DX2                !
 ! D7    D(1,5,7,8)             94.96           estimate D2E/DX2                !
 ! D8    D(6,5,7,8)            -85.04           estimate D2E/DX2                !
 --------------------------------------------------------------------------------
 Trust Radius=3.00D-01 FncErr=1.00D-07 GrdErr=1.00D-07
 Number of steps in this run=     35 maximum allowed number of steps=    100.
 GradGradGradGradGradGradGradGradGradGradGradGradGradGradGradGradGradGrad

                          Input orientation:                          
 ---------------------------------------------------------------------
 Center     Atomic      Atomic             Coordinates (Angstroms)
 Number     Number       Type             X           Y           Z
 ---------------------------------------------------------------------
      1          6           0       -1.602210   -1.629834    0.000000
      2          1           0       -1.245556   -2.638644    0.000000
      3          1           0       -1.245537   -1.125436   -0.873652
      4          1           0       -2.672210   -1.629821    0.000000
      5          6           0       -1.088868   -0.903878    1.257405
      6          8           0       -1.390238    0.300856    1.460784
      7          8           0       -0.266905   -1.601185    2.197108
      8          1           0        0.657642   -1.432739    2.001051
 ---------------------------------------------------------------------
                    Distance matrix (angstroms):
                    1          2          3          4          5
     1  C    0.000000
     2  H    1.070000   0.000000
     3  H    1.070000   1.747302   0.000000
     4  H    1.070000   1.747303   1.747303   0.000000
     5  C    1.540000   2.148263   2.148263   2.148263   0.000000
     6  O    2.430306   3.285648   2.739496   2.739499   1.258400
     7  O    2.571214   2.619420   3.257855   3.257851   1.430000
     8  H    3.024894   3.013399   3.461277   3.889854   1.970533
                    6          7          8
     6  O    0.000000
     7  O    2.328477   0.000000
     8  H    2.736979   0.960000   0.000000
 Stoichiometry    C2H4O2
 Framework group  C1[X(C2H4O2)]
 Deg. of freedom    18
 Full point group                 C1      NOp   1
 Largest Abelian subgroup         C1      NOp   1
 Largest concise Abelian subgroup C1      NOp   1
                         Standard orientation:                         
 ---------------------------------------------------------------------
 Center     Atomic      Atomic             Coordinates (Angstroms)
 Number     Number       Type             X           Y           Z
 ---------------------------------------------------------------------
      1          6           0        1.379087   -0.421350    0.012481
      2          1           0        1.363400   -1.490393   -0.029969
      3          1           0        1.852072   -0.107319    0.919438
      4          1           0        1.924394   -0.039110   -0.825034
      5          6           0       -0.063912    0.115160   -0.026365
      6          8           0       -0.280406    1.354168    0.013111
      7          8           0       -1.161592   -0.797750   -0.107576
      8          1           0       -1.494935   -0.977381    0.774589
 ---------------------------------------------------------------------
 Rotational constants (GHZ):     10.7233114      8.5355127      4.9670870
 Standard basis: VSTO-6G (5D, 7F)
 There are    20 symmetry adapted cartesian basis functions of A   symmetry.
 There are    20 symmetry adapted basis functions of A   symmetry.
    20 basis functions,   120 primitive gaussians,    20 cartesian basis functions
    12 alpha electrons       12 beta electrons
       nuclear repulsion energy        88.0864817974 Hartrees.
 Integral buffers will be    262144 words long.
 Regular integral format.
 Two-electron integral symmetry is turned off.
 Do NDO integrals.
 One-electron integrals computed using PRISM.
 NBasis=    20 RedAO= F EigKep=  0.00D+00  NBF=    20
 NBsUse=    20 1.00D-04 EigRej=  0.00D+00 NBFU=    20
 Simple Huckel Guess.
 Overlap will be assumed to be unity.
 Keep J ints in memory in canonical form, NReq=881737.
 Requested convergence on RMS density matrix=1.00D-08 within 128 cycles.
 Requested convergence on MAX density matrix=1.00D-06.
 Requested convergence on             energy=1.00D-06.
 No special actions if energy rises.
 SCF Done:  E(RPM6) = -0.131569388776     A.U. after   14 cycles
            NFock= 13  Conv=0.74D-08     -V/T= 0.9895

 **********************************************************************

            Population analysis using the SCF density.

 **********************************************************************

 Orbital symmetries:
       Occupied  (A) (A) (A) (A) (A) (A) (A) (A) (A) (A) (A) (A)
       Virtual   (A) (A) (A) (A) (A) (A) (A) (A)
 The electronic state is 1-A.
 Alpha  occ. eigenvalues --   -1.15473  -1.11899  -1.00158  -0.80301  -0.67524
 Alpha  occ. eigenvalues --   -0.60722  -0.58813  -0.56062  -0.53026  -0.48915
 Alpha  occ. eigenvalues --   -0.44366  -0.41097
 Alpha virt. eigenvalues --   -0.00494   0.03600   0.10364   0.14040   0.17342
 Alpha virt. eigenvalues --    0.17795   0.18165   0.21473
          Condensed to atoms (all electrons):
               1          2          3          4          5          6
     1  C    4.573692   0.000000   0.000000   0.000000   0.000000   0.000000
     2  H    0.000000   0.810540   0.000000   0.000000   0.000000   0.000000
     3  H    0.000000   0.000000   0.802924   0.000000   0.000000   0.000000
     4  H    0.000000   0.000000   0.000000   0.796963   0.000000   0.000000
     5  C    0.000000   0.000000   0.000000   0.000000   3.327573   0.000000
     6  O    0.000000   0.000000   0.000000   0.000000   0.000000   6.461049
     7  O    0.000000   0.000000   0.000000   0.000000   0.000000   0.000000
     8  H    0.000000   0.000000   0.000000   0.000000   0.000000   0.000000
               7          8
     1  C    0.000000   0.000000
     2  H    0.000000   0.000000
     3  H    0.000000   0.000000
     4  H    0.000000   0.000000
     5  C    0.000000   0.000000
     6  O    0.000000   0.000000
     7  O    6.562138   0.000000
     8  H    0.000000   0.665120
 Mulliken charges:
               1
     1  C   -0.573692
     2  H    0.189460
     3  H    0.197076
     4  H    0.203037
     5  C    0.672427
     6  O   -0.461049
     7  O   -0.562138
     8  H    0.334880
 Sum of Mulliken charges =   0.00000
 Mulliken charges with hydrogens summed into heavy atoms:
               1
     1  C    0.015880
     5  C    0.672427
     6  O   -0.461049
     7  O   -0.227258
 Charge=              0.0000 electrons
 Dipole moment (field-independent basis, Debye):
    X=              1.9442    Y=             -2.4174    Z=              1.6540  Tot=              3.5156
 N-N= 8.808648179736D+01 E-N=-1.471433999830D+02  KE=-1.252560704587D+01
 Calling FoFJK, ICntrl=      2127 FMM=F ISym2X=0 I1Cent= 0 IOpClX= 0 NMat=1 NMatS=1 NMatT=0.
 ***** Axes restored to original set *****
 -------------------------------------------------------------------
 Center     Atomic                   Forces (Hartrees/Bohr)
 Number     Number              X              Y              Z
 -------------------------------------------------------------------
      1        6           0.024560604    0.008831363    0.047146838
      2        1           0.002777117   -0.016068976   -0.003156565
      3        1           0.003390198    0.007554929   -0.012494805
      4        1          -0.015603780    0.000320606   -0.001289061
      5        6          -0.022872601    0.070020728   -0.000785729
      6        8           0.026266842   -0.084315220   -0.004218689
      7        8          -0.028620018    0.012294247   -0.028591581
      8        1           0.010101637    0.001362323    0.003389592
 -------------------------------------------------------------------
 Cartesian Forces:  Max     0.084315220 RMS     0.027985457

 GradGradGradGradGradGradGradGradGradGradGradGradGradGradGradGradGradGrad
 Berny optimization.
 FormGI is forming the generalized inverse of G from B-inverse, IUseBI=4.
 Internal  Forces:  Max     0.087691854 RMS     0.021357693
 Search for a local minimum.
 Step number   1 out of a maximum of   35
 All quantities printed in internal units (Hartrees-Bohrs-Radians)
 Mixed Optimization -- RFO/linear search
 Second derivative matrix not updated -- first step.
 ITU=  0
     Eigenvalues ---    0.00237   0.00500   0.01295   0.07243   0.07243
     Eigenvalues ---    0.16000   0.16000   0.16000   0.16000   0.25000
     Eigenvalues ---    0.25000   0.28519   0.37230   0.37230   0.37230
     Eigenvalues ---    0.40989   0.55473   0.80209
 RFO step:  Lambda=-2.10050747D-02 EMin= 2.36824124D-03
 Linear search not attempted -- first point.
 Iteration  1 RMS(Cart)=  0.04894771 RMS(Int)=  0.00294012
 Iteration  2 RMS(Cart)=  0.00298565 RMS(Int)=  0.00064661
 Iteration  3 RMS(Cart)=  0.00000834 RMS(Int)=  0.00064658
 Iteration  4 RMS(Cart)=  0.00000000 RMS(Int)=  0.00064658
 Variable       Old X    -DE/DX   Delta X   Delta X   Delta X     New X
                                 (Linear)    (Quad)   (Total)
    R1        2.02201   0.01608   0.00000   0.04087   0.04087   2.06288
    R2        2.02201   0.01489   0.00000   0.03787   0.03787   2.05987
    R3        2.02201   0.01560   0.00000   0.03967   0.03967   2.06168
    R4        2.91018  -0.03001   0.00000  -0.09800  -0.09800   2.81218
    R5        2.37803  -0.08769   0.00000  -0.10654  -0.10654   2.27149
    R6        2.70231  -0.03386   0.00000  -0.07859  -0.07859   2.62372
    R7        1.81414   0.00928   0.00000   0.01611   0.01611   1.83025
    A1        1.91063  -0.00149   0.00000  -0.00223  -0.00244   1.90820
    A2        1.91063  -0.00244   0.00000  -0.01083  -0.01094   1.89970
    A3        1.91063   0.00633   0.00000   0.03930   0.03914   1.94977
    A4        1.91063  -0.00177   0.00000  -0.01843  -0.01853   1.89210
    A5        1.91063  -0.00046   0.00000  -0.00386  -0.00402   1.90661
    A6        1.91063  -0.00017   0.00000  -0.00395  -0.00405   1.90658
    A7        2.09836   0.02103   0.00000   0.07760   0.07666   2.17502
    A8        2.09241  -0.01533   0.00000  -0.05658  -0.05744   2.03498
    A9        2.09241  -0.00570   0.00000  -0.02102  -0.02181   2.07061
   A10        1.91114   0.00822   0.00000   0.04544   0.04544   1.95657
    D1        3.14159   0.00137   0.00000   0.04388   0.04446  -3.09714
    D2       -0.00001  -0.00064   0.00000  -0.03355  -0.03405  -0.03405
    D3        1.04719  -0.00040   0.00000   0.02492   0.02542   1.07261
    D4       -2.09440  -0.00241   0.00000  -0.05251  -0.05309  -2.14749
    D5       -1.04720   0.00216   0.00000   0.05227   0.05281  -0.99439
    D6        2.09439   0.00014   0.00000  -0.02516  -0.02569   2.06870
    D7        1.65736   0.00354   0.00000   0.11330   0.11152   1.76889
    D8       -1.48423   0.00153   0.00000   0.03614   0.03792  -1.44631
         Item               Value     Threshold  Converged?
 Maximum Force            0.087692     0.000450     NO 
 RMS     Force            0.021358     0.000300     NO 
 Maximum Displacement     0.142329     0.001800     NO 
 RMS     Displacement     0.049655     0.001200     NO 
 Predicted change in Energy=-1.123623D-02
 GradGradGradGradGradGradGradGradGradGradGradGradGradGradGradGradGradGrad

                          Input orientation:                          
 ---------------------------------------------------------------------
 Center     Atomic      Atomic             Coordinates (Angstroms)
 Number     Number       Type             X           Y           Z
 ---------------------------------------------------------------------
      1          6           0       -1.580896   -1.622480    0.028043
      2          1           0       -1.227233   -2.655196    0.019447
      3          1           0       -1.242837   -1.117749   -0.877024
      4          1           0       -2.671869   -1.623652    0.034849
      5          6           0       -1.083903   -0.880209    1.218254
      6          8           0       -1.367496    0.258026    1.480649
      7          8           0       -0.312857   -1.599093    2.121791
      8          1           0        0.633208   -1.420328    2.016689
 ---------------------------------------------------------------------
                    Distance matrix (angstroms):
                    1          2          3          4          5
     1  C    0.000000
     2  H    1.091629   0.000000
     3  H    1.090039   1.779789   0.000000
     4  H    1.090994   1.775188   1.769063   0.000000
     5  C    1.488143   2.146685   2.114681   2.115370   0.000000
     6  O    2.385772   3.262154   2.732567   2.707848   1.202022
     7  O    2.447908   2.524140   3.176389   3.149741   1.388411
     8  H    2.982924   2.995849   3.461889   3.859088   1.969187
                    6          7          8
     6  O    0.000000
     7  O    2.229847   0.000000
     8  H    2.665900   0.968525   0.000000
 Stoichiometry    C2H4O2
 Framework group  C1[X(C2H4O2)]
 Deg. of freedom    18
 Full point group                 C1      NOp   1
 Largest Abelian subgroup         C1      NOp   1
 Largest concise Abelian subgroup C1      NOp   1
                         Standard orientation:                         
 ---------------------------------------------------------------------
 Center     Atomic      Atomic             Coordinates (Angstroms)
 Number     Number       Type             X           Y           Z
 ---------------------------------------------------------------------
      1          6           0        1.358687   -0.313304    0.012195
      2          1           0        1.440010   -1.400696   -0.038985
      3          1           0        1.840047    0.042058    0.923345
      4          1           0        1.878744    0.119637   -0.843592
      5          6           0       -0.060662    0.133788    0.000975
      6          8           0       -0.414862    1.282433    0.004771
      7          8           0       -1.024300   -0.859320   -0.112261
      8          1           0       -1.433650   -1.068807    0.740141
 ---------------------------------------------------------------------
 Rotational constants (GHZ):     11.2651655      9.1964353      5.3065475
 Standard basis: VSTO-6G (5D, 7F)
 There are    20 symmetry adapted cartesian basis functions of A   symmetry.
 There are    20 symmetry adapted basis functions of A   symmetry.
    20 basis functions,   120 primitive gaussians,    20 cartesian basis functions
    12 alpha electrons       12 beta electrons
       nuclear repulsion energy        89.1956515847 Hartrees.
 Integral buffers will be    262144 words long.
 Regular integral format.
 Two-electron integral symmetry is turned off.
 Do NDO integrals.
 One-electron integrals computed using PRISM.
 NBasis=    20 RedAO= F EigKep=  0.00D+00  NBF=    20
 NBsUse=    20 1.00D-04 EigRej=  0.00D+00 NBFU=    20
 Initial guess from the checkpoint file:  "C:\G09W\gxx.chk"
 B after Tr=     0.000000    0.000000    0.000000
         Rot=    0.999050   -0.000447    0.001748   -0.043545 Ang=  -5.00 deg.
 Overlap will be assumed to be unity.
 Keep J ints in memory in canonical form, NReq=881737.
 Requested convergence on RMS density matrix=1.00D-08 within 128 cycles.
 Requested convergence on MAX density matrix=1.00D-06.
 Requested convergence on             energy=1.00D-06.
 No special actions if energy rises.
 SCF Done:  E(RPM6) = -0.143370087711     A.U. after   12 cycles
            NFock= 11  Conv=0.33D-08     -V/T= 0.9887
 Calling FoFJK, ICntrl=      2127 FMM=F ISym2X=0 I1Cent= 0 IOpClX= 0 NMat=1 NMatS=1 NMatT=0.
 ***** Axes restored to original set *****
 -------------------------------------------------------------------
 Center     Atomic                   Forces (Hartrees/Bohr)
 Number     Number              X              Y              Z
 -------------------------------------------------------------------
      1        6           0.008272452   -0.003339355    0.010241952
      2        1          -0.000301329   -0.005183093   -0.002311861
      3        1          -0.000134093    0.000862928   -0.006856921
      4        1          -0.006486320   -0.001470843   -0.002651758
      5        6          -0.011897142    0.012758510   -0.000850569
      6        8           0.002812419    0.004272301    0.002469639
      7        8           0.003228741   -0.008320523   -0.006291972
      8        1           0.004505272    0.000420076    0.006251491
 -------------------------------------------------------------------
 Cartesian Forces:  Max     0.012758510 RMS     0.005887614

 GradGradGradGradGradGradGradGradGradGradGradGradGradGradGradGradGradGrad
 Berny optimization.
 Using GEDIIS/GDIIS optimizer.
 FormGI is forming the generalized inverse of G from B-inverse, IUseBI=4.
 Internal  Forces:  Max     0.012038652 RMS     0.005121788
 Search for a local minimum.
 Step number   2 out of a maximum of   35
 All quantities printed in internal units (Hartrees-Bohrs-Radians)
 Mixed Optimization -- RFO/linear search
 Update second derivatives using D2CorX and points    1    2
 DE= -1.18D-02 DEPred=-1.12D-02 R= 1.05D+00
 TightC=F SS=  1.41D+00  RLast= 2.64D-01 DXNew= 5.0454D-01 7.9226D-01
 Trust test= 1.05D+00 RLast= 2.64D-01 DXMaxT set to 5.05D-01
 ITU=  1  0
 Use linear search instead of GDIIS.
     Eigenvalues ---    0.00237   0.00511   0.01255   0.06942   0.07290
     Eigenvalues ---    0.14497   0.16000   0.16000   0.16067   0.22146
     Eigenvalues ---    0.25091   0.30330   0.35726   0.37230   0.37240
     Eigenvalues ---    0.44668   0.55230   0.88632
 RFO step:  Lambda=-4.17363539D-03 EMin= 2.36824882D-03
 Quartic linear search produced a step of  0.07219.
 Iteration  1 RMS(Cart)=  0.04659905 RMS(Int)=  0.00892013
 Iteration  2 RMS(Cart)=  0.00582115 RMS(Int)=  0.00051015
 Iteration  3 RMS(Cart)=  0.00011269 RMS(Int)=  0.00049691
 Iteration  4 RMS(Cart)=  0.00000002 RMS(Int)=  0.00049691
 Variable       Old X    -DE/DX   Delta X   Delta X   Delta X     New X
                                 (Linear)    (Quad)   (Total)
    R1        2.06288   0.00482   0.00295   0.01778   0.02073   2.08361
    R2        2.05987   0.00605   0.00273   0.02095   0.02369   2.08356
    R3        2.06168   0.00647   0.00286   0.02232   0.02519   2.08687
    R4        2.81218   0.00537  -0.00707   0.01029   0.00321   2.81540
    R5        2.27149   0.00392  -0.00769  -0.00634  -0.01404   2.25746
    R6        2.62372   0.00836  -0.00567   0.01349   0.00782   2.63154
    R7        1.83025   0.00380   0.00116   0.00894   0.01011   1.84036
    A1        1.90820  -0.00290  -0.00018  -0.01631  -0.01690   1.89130
    A2        1.89970  -0.00327  -0.00079  -0.02378  -0.02476   1.87494
    A3        1.94977   0.00294   0.00283   0.02290   0.02541   1.97518
    A4        1.89210  -0.00343  -0.00134  -0.02503  -0.02651   1.86559
    A5        1.90661   0.00355  -0.00029   0.02358   0.02299   1.92960
    A6        1.90658   0.00290  -0.00029   0.01703   0.01656   1.92314
    A7        2.17502   0.00974   0.00553   0.05007   0.05451   2.22953
    A8        2.03498  -0.01204  -0.00415  -0.05385  -0.05908   1.97590
    A9        2.07061   0.00232  -0.00157   0.00978   0.00713   2.07774
   A10        1.95657   0.00972   0.00328   0.06692   0.07020   2.02677
    D1       -3.09714   0.00015   0.00321  -0.03688  -0.03386  -3.13101
    D2       -0.03405   0.00053  -0.00246   0.05402   0.05193   0.01787
    D3        1.07261  -0.00050   0.00184  -0.04715  -0.04570   1.02691
    D4       -2.14749  -0.00012  -0.00383   0.04375   0.04009  -2.10739
    D5       -0.99439  -0.00013   0.00381  -0.04065  -0.03710  -1.03149
    D6        2.06870   0.00025  -0.00185   0.05026   0.04869   2.11739
    D7        1.76889   0.00310   0.00805   0.15915   0.16812   1.93701
    D8       -1.44631   0.00386   0.00274   0.24650   0.24831  -1.19799
         Item               Value     Threshold  Converged?
 Maximum Force            0.012039     0.000450     NO 
 RMS     Force            0.005122     0.000300     NO 
 Maximum Displacement     0.144109     0.001800     NO 
 RMS     Displacement     0.050726     0.001200     NO 
 Predicted change in Energy=-2.488615D-03
 GradGradGradGradGradGradGradGradGradGradGradGradGradGradGradGradGradGrad

                          Input orientation:                          
 ---------------------------------------------------------------------
 Center     Atomic      Atomic             Coordinates (Angstroms)
 Number     Number       Type             X           Y           Z
 ---------------------------------------------------------------------
      1          6           0       -1.586791   -1.621695    0.031691
      2          1           0       -1.241623   -2.668682    0.011573
      3          1           0       -1.257128   -1.129338   -0.898135
      4          1           0       -2.690843   -1.637025    0.012602
      5          6           0       -1.103573   -0.867952    1.222491
      6          8           0       -1.327324    0.270324    1.507654
      7          8           0       -0.293558   -1.628550    2.061873
      8          1           0        0.646958   -1.377763    2.092948
 ---------------------------------------------------------------------
                    Distance matrix (angstroms):
                    1          2          3          4          5
     1  C    0.000000
     2  H    1.102600   0.000000
     3  H    1.102573   1.788123   0.000000
     4  H    1.104323   1.778920   1.772773   0.000000
     5  C    1.489843   2.174398   2.142184   2.138862   0.000000
     6  O    2.413612   3.298993   2.784206   2.780709   1.194594
     7  O    2.407101   2.486852   3.152669   3.153816   1.392550
     8  H    3.049249   3.092787   3.554411   3.941569   2.020386
                    6          7          8
     6  O    0.000000
     7  O    2.231939   0.000000
     8  H    2.637527   0.973874   0.000000
 Stoichiometry    C2H4O2
 Framework group  C1[X(C2H4O2)]
 Deg. of freedom    18
 Full point group                 C1      NOp   1
 Largest Abelian subgroup         C1      NOp   1
 Largest concise Abelian subgroup C1      NOp   1
                         Standard orientation:                         
 ---------------------------------------------------------------------
 Center     Atomic      Atomic             Coordinates (Angstroms)
 Number     Number       Type             X           Y           Z
 ---------------------------------------------------------------------
      1          6           0        1.372174   -0.227721    0.020898
      2          1           0        1.533865   -1.317093   -0.032501
      3          1           0        1.844252    0.148700    0.943458
      4          1           0        1.913964    0.228947   -0.826126
      5          6           0       -0.067219    0.154117   -0.023601
      6          8           0       -0.533336    1.253612    0.006417
      7          8           0       -0.923483   -0.941340   -0.100947
      8          1           0       -1.467261   -1.117104    0.687623
 ---------------------------------------------------------------------
 Rotational constants (GHZ):     11.1220404      9.2768516      5.2908362
 Standard basis: VSTO-6G (5D, 7F)
 There are    20 symmetry adapted cartesian basis functions of A   symmetry.
 There are    20 symmetry adapted basis functions of A   symmetry.
    20 basis functions,   120 primitive gaussians,    20 cartesian basis functions
    12 alpha electrons       12 beta electrons
       nuclear repulsion energy        89.0783285799 Hartrees.
 Integral buffers will be    262144 words long.
 Regular integral format.
 Two-electron integral symmetry is turned off.
 Do NDO integrals.
 One-electron integrals computed using PRISM.
 NBasis=    20 RedAO= F EigKep=  0.00D+00  NBF=    20
 NBsUse=    20 1.00D-04 EigRej=  0.00D+00 NBFU=    20
 Initial guess from the checkpoint file:  "C:\G09W\gxx.chk"
 B after Tr=     0.000000    0.000000    0.000000
         Rot=    0.999300    0.001858    0.004172   -0.037140 Ang=   4.29 deg.
 Overlap will be assumed to be unity.
 Keep J ints in memory in canonical form, NReq=881737.
 Requested convergence on RMS density matrix=1.00D-08 within 128 cycles.
 Requested convergence on MAX density matrix=1.00D-06.
 Requested convergence on             energy=1.00D-06.
 No special actions if energy rises.
 SCF Done:  E(RPM6) = -0.146657388699     A.U. after   12 cycles
            NFock= 11  Conv=0.55D-08     -V/T= 0.9884
 Calling FoFJK, ICntrl=      2127 FMM=F ISym2X=0 I1Cent= 0 IOpClX= 0 NMat=1 NMatS=1 NMatT=0.
 ***** Axes restored to original set *****
 -------------------------------------------------------------------
 Center     Atomic                   Forces (Hartrees/Bohr)
 Number     Number              X              Y              Z
 -------------------------------------------------------------------
      1        6          -0.002594431   -0.002552944    0.004703523
      2        1          -0.000124764    0.001258472    0.000466328
      3        1          -0.000189922   -0.000573719    0.000775882
      4        1           0.000416704   -0.000627742   -0.000996186
      5        6           0.005263898   -0.003671404   -0.007418563
      6        8          -0.002244173    0.012201160    0.003463195
      7        8           0.003061953   -0.010636543   -0.005672816
      8        1          -0.003589265    0.004602720    0.004678637
 -------------------------------------------------------------------
 Cartesian Forces:  Max     0.012201160 RMS     0.004620998

 GradGradGradGradGradGradGradGradGradGradGradGradGradGradGradGradGradGrad
 Berny optimization.
 Using GEDIIS/GDIIS optimizer.
 FormGI is forming the generalized inverse of G from B-inverse, IUseBI=4.
 Internal  Forces:  Max     0.012872992 RMS     0.003610912
 Search for a local minimum.
 Step number   3 out of a maximum of   35
 All quantities printed in internal units (Hartrees-Bohrs-Radians)
 Mixed Optimization -- RFO/linear search
 Update second derivatives using D2CorX and points    1    2    3
 DE= -3.29D-03 DEPred=-2.49D-03 R= 1.32D+00
 TightC=F SS=  1.41D+00  RLast= 3.43D-01 DXNew= 8.4853D-01 1.0292D+00
 Trust test= 1.32D+00 RLast= 3.43D-01 DXMaxT set to 8.49D-01
 ITU=  1  1  0
 Use linear search instead of GDIIS.
     Eigenvalues ---    0.00236   0.00286   0.00785   0.06688   0.07122
     Eigenvalues ---    0.15588   0.16000   0.16030   0.19295   0.20555
     Eigenvalues ---    0.25351   0.31181   0.37217   0.37236   0.39990
     Eigenvalues ---    0.45516   0.56932   1.02455
 RFO step:  Lambda=-8.39535633D-03 EMin= 2.35909268D-03
 Quartic linear search produced a step of  0.94417.
 Iteration  1 RMS(Cart)=  0.08507971 RMS(Int)=  0.12586487
 Iteration  2 RMS(Cart)=  0.05304905 RMS(Int)=  0.06801501
 Iteration  3 RMS(Cart)=  0.04775997 RMS(Int)=  0.01239798
 Iteration  4 RMS(Cart)=  0.01032461 RMS(Int)=  0.00259534
 Iteration  5 RMS(Cart)=  0.00024774 RMS(Int)=  0.00258308
 Iteration  6 RMS(Cart)=  0.00000009 RMS(Int)=  0.00258308
 Variable       Old X    -DE/DX   Delta X   Delta X   Delta X     New X
                                 (Linear)    (Quad)   (Total)
    R1        2.08361  -0.00124   0.01957   0.02059   0.04017   2.12378
    R2        2.08356  -0.00097   0.02236   0.02349   0.04586   2.12942
    R3        2.08687  -0.00039   0.02378   0.02701   0.05079   2.13766
    R4        2.81540  -0.00188   0.00303  -0.02248  -0.01945   2.79595
    R5        2.25746   0.01287  -0.01325  -0.01073  -0.02399   2.23347
    R6        2.63154   0.00239   0.00738   0.00016   0.00754   2.63908
    R7        1.84036  -0.00213   0.00954   0.00668   0.01623   1.85658
    A1        1.89130   0.00016  -0.01596  -0.01753  -0.03466   1.85664
    A2        1.87494  -0.00037  -0.02338  -0.02413  -0.04836   1.82658
    A3        1.97518  -0.00120   0.02399   0.01633   0.03914   2.01432
    A4        1.86559  -0.00056  -0.02503  -0.02574  -0.05148   1.81411
    A5        1.92960  -0.00003   0.02170   0.01697   0.03759   1.96719
    A6        1.92314   0.00199   0.01564   0.02998   0.04474   1.96789
    A7        2.22953   0.00340   0.05147   0.07552   0.12082   2.35035
    A8        1.97590  -0.00578  -0.05578  -0.08792  -0.14914   1.82676
    A9        2.07774   0.00240   0.00673   0.01401   0.01571   2.09344
   A10        2.02677  -0.00173   0.06628   0.05204   0.11831   2.14508
    D1       -3.13101   0.00117  -0.03197   0.13776   0.10712  -3.02389
    D2        0.01787  -0.00160   0.04903  -0.12639  -0.07848  -0.06060
    D3        1.02691   0.00183  -0.04315   0.13648   0.09440   1.12132
    D4       -2.10739  -0.00094   0.03786  -0.12767  -0.09119  -2.19858
    D5       -1.03149   0.00130  -0.03503   0.13920   0.10544  -0.92605
    D6        2.11739  -0.00147   0.04597  -0.12496  -0.08016   2.03723
    D7        1.93701   0.00713   0.15874   0.56696   0.72026   2.65727
    D8       -1.19799   0.00461   0.23445   0.32769   0.56757  -0.63042
         Item               Value     Threshold  Converged?
 Maximum Force            0.012873     0.000450     NO 
 RMS     Force            0.003611     0.000300     NO 
 Maximum Displacement     0.543520     0.001800     NO 
 RMS     Displacement     0.170347     0.001200     NO 
 Predicted change in Energy=-7.740789D-03
 GradGradGradGradGradGradGradGradGradGradGradGradGradGradGradGradGradGrad

                          Input orientation:                          
 ---------------------------------------------------------------------
 Center     Atomic      Atomic             Coordinates (Angstroms)
 Number     Number       Type             X           Y           Z
 ---------------------------------------------------------------------
      1          6           0       -1.582781   -1.605289    0.031207
      2          1           0       -1.206641   -2.663130   -0.019205
      3          1           0       -1.391672   -1.151477   -0.982352
      4          1           0       -2.708721   -1.703808    0.077791
      5          6           0       -1.033713   -0.788152    1.135689
      6          8           0       -1.255977    0.292463    1.559671
      7          8           0       -0.226451   -1.668494    1.859329
      8          1           0        0.552073   -1.372794    2.380567
 ---------------------------------------------------------------------
                    Distance matrix (angstroms):
                    1          2          3          4          5
     1  C    0.000000
     2  H    1.123855   0.000000
     3  H    1.126840   1.801939   0.000000
     4  H    1.131202   1.784924   1.778649   0.000000
     5  C    1.479551   2.208897   2.178586   2.182482   0.000000
     6  O    2.458550   3.351240   2.926646   2.879502   1.181901
     7  O    2.277203   2.340718   3.114513   3.055616   1.396542
     8  H    3.182946   3.242984   3.890546   4.005637   2.099105
                    6          7          8
     6  O    0.000000
     7  O    2.234965   0.000000
     8  H    2.591523   0.982460   0.000000
 Stoichiometry    C2H4O2
 Framework group  C1[X(C2H4O2)]
 Deg. of freedom    18
 Full point group                 C1      NOp   1
 Largest Abelian subgroup         C1      NOp   1
 Largest concise Abelian subgroup C1      NOp   1
                         Standard orientation:                         
 ---------------------------------------------------------------------
 Center     Atomic      Atomic             Coordinates (Angstroms)
 Number     Number       Type             X           Y           Z
 ---------------------------------------------------------------------
      1          6           0        1.366837    0.001260    0.010650
      2          1           0        1.712683   -1.067551   -0.022280
      3          1           0        1.887858    0.476873    0.889341
      4          1           0        1.851368    0.486694   -0.888906
      5          6           0       -0.099827    0.193269    0.043816
      6          8           0       -0.816592    1.130985   -0.018038
      7          8           0       -0.627572   -1.095588   -0.059432
      8          1           0       -1.500661   -1.346363    0.314807
 ---------------------------------------------------------------------
 Rotational constants (GHZ):     11.2629543      9.4086998      5.3172598
 Standard basis: VSTO-6G (5D, 7F)
 There are    20 symmetry adapted cartesian basis functions of A   symmetry.
 There are    20 symmetry adapted basis functions of A   symmetry.
    20 basis functions,   120 primitive gaussians,    20 cartesian basis functions
    12 alpha electrons       12 beta electrons
       nuclear repulsion energy        89.1013629096 Hartrees.
 Integral buffers will be    262144 words long.
 Regular integral format.
 Two-electron integral symmetry is turned off.
 Do NDO integrals.
 One-electron integrals computed using PRISM.
 NBasis=    20 RedAO= F EigKep=  0.00D+00  NBF=    20
 NBsUse=    20 1.00D-04 EigRej=  0.00D+00 NBFU=    20
 Initial guess from the checkpoint file:  "C:\G09W\gxx.chk"
 B after Tr=     0.000000    0.000000    0.000000
         Rot=    0.995276    0.003726    0.003216   -0.096966 Ang=  11.14 deg.
 Overlap will be assumed to be unity.
 Keep J ints in memory in canonical form, NReq=881737.
 Requested convergence on RMS density matrix=1.00D-08 within 128 cycles.
 Requested convergence on MAX density matrix=1.00D-06.
 Requested convergence on             energy=1.00D-06.
 No special actions if energy rises.
 SCF Done:  E(RPM6) = -0.151236302564     A.U. after   13 cycles
            NFock= 12  Conv=0.28D-08     -V/T= 0.9880
 Calling FoFJK, ICntrl=      2127 FMM=F ISym2X=0 I1Cent= 0 IOpClX= 0 NMat=1 NMatS=1 NMatT=0.
 ***** Axes restored to original set *****
 -------------------------------------------------------------------
 Center     Atomic                   Forces (Hartrees/Bohr)
 Number     Number              X              Y              Z
 -------------------------------------------------------------------
      1        6          -0.016943662   -0.002584090   -0.023241384
      2        1          -0.000121985    0.011806174    0.004448637
      3        1           0.000423091   -0.003462809    0.012634286
      4        1           0.013602158    0.003104828    0.003124477
      5        6           0.006384297   -0.043776636    0.006055466
      6        8          -0.002314496    0.033165785    0.003797710
      7        8           0.011448488   -0.006892879   -0.006115439
      8        1          -0.012477891    0.008639626   -0.000703753
 -------------------------------------------------------------------
 Cartesian Forces:  Max     0.043776636 RMS     0.014331956

 GradGradGradGradGradGradGradGradGradGradGradGradGradGradGradGradGradGrad
 Berny optimization.
 Using GEDIIS/GDIIS optimizer.
 FormGI is forming the generalized inverse of G from B-inverse, IUseBI=4.
 Internal  Forces:  Max     0.032121152 RMS     0.009870755
 Search for a local minimum.
 Step number   4 out of a maximum of   35
 All quantities printed in internal units (Hartrees-Bohrs-Radians)
 Mixed Optimization -- RFO/linear search
 Update second derivatives using D2CorX and points    3    4
 DE= -4.58D-03 DEPred=-7.74D-03 R= 5.92D-01
 TightC=F SS=  1.41D+00  RLast= 9.81D-01 DXNew= 1.4270D+00 2.9441D+00
 Trust test= 5.92D-01 RLast= 9.81D-01 DXMaxT set to 1.43D+00
 ITU=  1  1  1  0
 Use linear search instead of GDIIS.
     Eigenvalues ---    0.00237   0.00302   0.02383   0.06210   0.06662
     Eigenvalues ---    0.15728   0.16019   0.16155   0.19146   0.23322
     Eigenvalues ---    0.25101   0.31155   0.37233   0.37239   0.41148
     Eigenvalues ---    0.48126   0.57730   1.01429
 RFO step:  Lambda=-6.98149438D-03 EMin= 2.36600893D-03
 Quartic linear search produced a step of -0.14317.
 Iteration  1 RMS(Cart)=  0.04392678 RMS(Int)=  0.03290782
 Iteration  2 RMS(Cart)=  0.01997797 RMS(Int)=  0.00284783
 Iteration  3 RMS(Cart)=  0.00139255 RMS(Int)=  0.00257183
 Iteration  4 RMS(Cart)=  0.00000348 RMS(Int)=  0.00257183
 Iteration  5 RMS(Cart)=  0.00000000 RMS(Int)=  0.00257183
 Variable       Old X    -DE/DX   Delta X   Delta X   Delta X     New X
                                 (Linear)    (Quad)   (Total)
    R1        2.12378  -0.01135  -0.00575  -0.00053  -0.00628   2.11750
    R2        2.12942  -0.01269  -0.00657  -0.00051  -0.00708   2.12234
    R3        2.13766  -0.01368  -0.00727  -0.00013  -0.00740   2.13026
    R4        2.79595  -0.00150   0.00278  -0.01429  -0.01150   2.78444
    R5        2.23347   0.03212   0.00343   0.01091   0.01435   2.24781
    R6        2.63908  -0.00523  -0.00108  -0.00741  -0.00849   2.63059
    R7        1.85658  -0.00766  -0.00232  -0.00110  -0.00342   1.85316
    A1        1.85664   0.00387   0.00496  -0.00282   0.00225   1.85889
    A2        1.82658   0.00522   0.00692  -0.00229   0.00470   1.83128
    A3        2.01432  -0.00635  -0.00560  -0.00774  -0.01324   2.00108
    A4        1.81411   0.00425   0.00737  -0.00172   0.00572   1.81983
    A5        1.96719  -0.00178  -0.00538   0.00871   0.00343   1.97062
    A6        1.96789  -0.00346  -0.00641   0.00539  -0.00094   1.96695
    A7        2.35035  -0.00960  -0.01730   0.03861   0.01399   2.36433
    A8        1.82676   0.01099   0.02135  -0.02325  -0.00914   1.81762
    A9        2.09344  -0.00070  -0.00225   0.01557   0.00613   2.09957
   A10        2.14508  -0.01960  -0.01694  -0.02154  -0.03848   2.10660
    D1       -3.02389  -0.00289  -0.01534  -0.10270  -0.11842   3.14088
    D2       -0.06060   0.00249   0.01124   0.11325   0.12484   0.06424
    D3        1.12132  -0.00162  -0.01352  -0.09990  -0.11377   1.00754
    D4       -2.19858   0.00376   0.01306   0.11605   0.12949  -2.06909
    D5       -0.92605  -0.00347  -0.01510  -0.10740  -0.12286  -1.04891
    D6        2.03723   0.00191   0.01148   0.10856   0.12040   2.15764
    D7        2.65727   0.00455  -0.10312   0.29720   0.19589   2.85317
    D8       -0.63042   0.00760  -0.08126   0.47782   0.39474  -0.23568
         Item               Value     Threshold  Converged?
 Maximum Force            0.032121     0.000450     NO 
 RMS     Force            0.009871     0.000300     NO 
 Maximum Displacement     0.142156     0.001800     NO 
 RMS     Displacement     0.056052     0.001200     NO 
 Predicted change in Energy=-4.712659D-03
 GradGradGradGradGradGradGradGradGradGradGradGradGradGradGradGradGradGrad

                          Input orientation:                          
 ---------------------------------------------------------------------
 Center     Atomic      Atomic             Coordinates (Angstroms)
 Number     Number       Type             X           Y           Z
 ---------------------------------------------------------------------
      1          6           0       -1.596481   -1.610122    0.036726
      2          1           0       -1.220586   -2.664599   -0.012032
      3          1           0       -1.375916   -1.146228   -0.962022
      4          1           0       -2.719731   -1.703001    0.057961
      5          6           0       -1.069770   -0.821379    1.164359
      6          8           0       -1.210996    0.291515    1.559853
      7          8           0       -0.163528   -1.677206    1.784103
      8          1           0        0.503126   -1.329663    2.413749
 ---------------------------------------------------------------------
                    Distance matrix (angstroms):
                    1          2          3          4          5
     1  C    0.000000
     2  H    1.120534   0.000000
     3  H    1.123096   1.797793   0.000000
     4  H    1.127284   1.782415   1.776571   0.000000
     5  C    1.473464   2.191826   2.172728   2.173418   0.000000
     6  O    2.466725   3.348062   2.907603   2.917200   1.189492
     7  O    2.260792   2.306169   3.048446   3.084543   1.392048
     8  H    3.183905   3.261542   3.867852   4.009480   2.072036
                    6          7          8
     6  O    0.000000
     7  O    2.241280   0.000000
     8  H    2.509098   0.980648   0.000000
 Stoichiometry    C2H4O2
 Framework group  C1[X(C2H4O2)]
 Deg. of freedom    18
 Full point group                 C1      NOp   1
 Largest Abelian subgroup         C1      NOp   1
 Largest concise Abelian subgroup C1      NOp   1
                         Standard orientation:                         
 ---------------------------------------------------------------------
 Center     Atomic      Atomic             Coordinates (Angstroms)
 Number     Number       Type             X           Y           Z
 ---------------------------------------------------------------------
      1          6           0        1.364130    0.048485    0.014139
      2          1           0        1.733558   -1.008338   -0.033232
      3          1           0        1.823288    0.506220    0.931198
      4          1           0        1.874260    0.573074   -0.843383
      5          6           0       -0.102076    0.189356   -0.024480
      6          8           0       -0.867462    1.099485    0.002729
      7          8           0       -0.569808   -1.121759   -0.025778
      8          1           0       -1.505264   -1.319814    0.191858
 ---------------------------------------------------------------------
 Rotational constants (GHZ):     11.3825721      9.3943824      5.3252029
 Standard basis: VSTO-6G (5D, 7F)
 There are    20 symmetry adapted cartesian basis functions of A   symmetry.
 There are    20 symmetry adapted basis functions of A   symmetry.
    20 basis functions,   120 primitive gaussians,    20 cartesian basis functions
    12 alpha electrons       12 beta electrons
       nuclear repulsion energy        89.1855140341 Hartrees.
 Integral buffers will be    262144 words long.
 Regular integral format.
 Two-electron integral symmetry is turned off.
 Do NDO integrals.
 One-electron integrals computed using PRISM.
 NBasis=    20 RedAO= F EigKep=  0.00D+00  NBF=    20
 NBsUse=    20 1.00D-04 EigRej=  0.00D+00 NBFU=    20
 Initial guess from the checkpoint file:  "C:\G09W\gxx.chk"
 B after Tr=     0.000000    0.000000    0.000000
         Rot=    0.999830   -0.001151    0.002893   -0.018155 Ang=  -2.11 deg.
 Overlap will be assumed to be unity.
 Keep J ints in memory in canonical form, NReq=881737.
 Requested convergence on RMS density matrix=1.00D-08 within 128 cycles.
 Requested convergence on MAX density matrix=1.00D-06.
 Requested convergence on             energy=1.00D-06.
 No special actions if energy rises.
 SCF Done:  E(RPM6) = -0.155944385777     A.U. after   12 cycles
            NFock= 11  Conv=0.45D-08     -V/T= 0.9876
 Calling FoFJK, ICntrl=      2127 FMM=F ISym2X=0 I1Cent= 0 IOpClX= 0 NMat=1 NMatS=1 NMatT=0.
 ***** Axes restored to original set *****
 -------------------------------------------------------------------
 Center     Atomic                   Forces (Hartrees/Bohr)
 Number     Number              X              Y              Z
 -------------------------------------------------------------------
      1        6          -0.022970201   -0.005114215   -0.019730253
      2        1           0.000170975    0.009262320    0.003240308
      3        1           0.000674953   -0.002372061    0.011124441
      4        1           0.011402051    0.002400732    0.002292847
      5        6           0.020218861   -0.025143485   -0.001375721
      6        8          -0.005878793    0.019565874    0.005026681
      7        8           0.004869789   -0.005449290   -0.000965879
      8        1          -0.008487636    0.006850125    0.000387576
 -------------------------------------------------------------------
 Cartesian Forces:  Max     0.025143485 RMS     0.011122890

 GradGradGradGradGradGradGradGradGradGradGradGradGradGradGradGradGradGrad
 Berny optimization.
 Using GEDIIS/GDIIS optimizer.
 FormGI is forming the generalized inverse of G from B-inverse, IUseBI=4.
 Internal  Forces:  Max     0.020675201 RMS     0.007881545
 Search for a local minimum.
 Step number   5 out of a maximum of   35
 All quantities printed in internal units (Hartrees-Bohrs-Radians)
 Mixed Optimization -- RFO/linear search
 Update second derivatives using D2CorX and points    4    5
 DE= -4.71D-03 DEPred=-4.71D-03 R= 9.99D-01
 TightC=F SS=  1.41D+00  RLast= 5.35D-01 DXNew= 2.4000D+00 1.6036D+00
 Trust test= 9.99D-01 RLast= 5.35D-01 DXMaxT set to 1.60D+00
 ITU=  1  1  1  1  0
 Use linear search instead of GDIIS.
     Eigenvalues ---    0.00237   0.00609   0.03216   0.06346   0.06632
     Eigenvalues ---    0.11927   0.15786   0.16059   0.16682   0.20149
     Eigenvalues ---    0.25277   0.31288   0.35665   0.37239   0.37279
     Eigenvalues ---    0.44260   0.56142   0.82962
 RFO step:  Lambda=-8.90536987D-03 EMin= 2.36829698D-03
 Quartic linear search produced a step of  0.30258.
 Iteration  1 RMS(Cart)=  0.09333420 RMS(Int)=  0.00987372
 Iteration  2 RMS(Cart)=  0.01026907 RMS(Int)=  0.00110531
 Iteration  3 RMS(Cart)=  0.00003376 RMS(Int)=  0.00110491
 Iteration  4 RMS(Cart)=  0.00000000 RMS(Int)=  0.00110491
 Variable       Old X    -DE/DX   Delta X   Delta X   Delta X     New X
                                 (Linear)    (Quad)   (Total)
    R1        2.11750  -0.00880  -0.00190  -0.04198  -0.04388   2.07362
    R2        2.12234  -0.01074  -0.00214  -0.05041  -0.05255   2.06980
    R3        2.13026  -0.01152  -0.00224  -0.05710  -0.05934   2.07092
    R4        2.78444   0.00395  -0.00348   0.04454   0.04106   2.82550
    R5        2.24781   0.02068   0.00434   0.04676   0.05110   2.29891
    R6        2.63059  -0.00347  -0.00257  -0.01066  -0.01323   2.61736
    R7        1.85316  -0.00309  -0.00104  -0.00791  -0.00894   1.84421
    A1        1.85889   0.00345   0.00068   0.02601   0.02590   1.88479
    A2        1.83128   0.00405   0.00142   0.04628   0.04697   1.87825
    A3        2.00108  -0.00463  -0.00401  -0.04254  -0.04737   1.95371
    A4        1.81983   0.00381   0.00173   0.04610   0.04764   1.86748
    A5        1.97062  -0.00350   0.00104  -0.02457  -0.02407   1.94655
    A6        1.96695  -0.00176  -0.00028  -0.03670  -0.03748   1.92947
    A7        2.36433  -0.01101   0.00423  -0.09513  -0.09367   2.27066
    A8        1.81762   0.01434  -0.00277   0.12320   0.11756   1.93518
    A9        2.09957  -0.00318   0.00185  -0.02751  -0.02862   2.07095
   A10        2.10660  -0.01721  -0.01164  -0.16152  -0.17317   1.93343
    D1        3.14088   0.00081  -0.03583  -0.00146  -0.03687   3.10401
    D2        0.06424  -0.00236   0.03778  -0.01389   0.02350   0.08774
    D3        1.00754   0.00263  -0.03443   0.01676  -0.01750   0.99005
    D4       -2.06909  -0.00054   0.03918   0.00432   0.04287  -2.02623
    D5       -1.04891   0.00138  -0.03718   0.00004  -0.03652  -1.08543
    D6        2.15764  -0.00179   0.03643  -0.01240   0.02385   2.18148
    D7        2.85317   0.00489   0.05927  -0.05045   0.00777   2.86094
    D8       -0.23568   0.00281   0.11944  -0.05629   0.06420  -0.17148
         Item               Value     Threshold  Converged?
 Maximum Force            0.020675     0.000450     NO 
 RMS     Force            0.007882     0.000300     NO 
 Maximum Displacement     0.275608     0.001800     NO 
 RMS     Displacement     0.091021     0.001200     NO 
 Predicted change in Energy=-5.080941D-03
 GradGradGradGradGradGradGradGradGradGradGradGradGradGradGradGradGradGrad

                          Input orientation:                          
 ---------------------------------------------------------------------
 Center     Atomic      Atomic             Coordinates (Angstroms)
 Number     Number       Type             X           Y           Z
 ---------------------------------------------------------------------
      1          6           0       -1.622522   -1.629502    0.001157
      2          1           0       -1.269818   -2.666232   -0.068762
      3          1           0       -1.372882   -1.123210   -0.937462
      4          1           0       -2.715915   -1.655125    0.070385
      5          6           0       -1.038476   -0.919019    1.180012
      6          8           0       -1.173999    0.232988    1.546707
      7          8           0       -0.108764   -1.716764    1.826230
      8          1           0        0.448495   -1.183817    2.424429
 ---------------------------------------------------------------------
                    Distance matrix (angstroms):
                    1          2          3          4          5
     1  C    0.000000
     2  H    1.097314   0.000000
     3  H    1.095289   1.773747   0.000000
     4  H    1.095882   1.769998   1.761371   0.000000
     5  C    1.495190   2.160025   2.153420   2.141711   0.000000
     6  O    2.461456   3.320300   2.837239   2.849913   1.216533
     7  O    2.372756   2.416719   3.096498   3.143887   1.385048
     8  H    3.218694   3.371373   3.824055   3.972045   1.956981
                    6          7          8
     6  O    0.000000
     7  O    2.239284   0.000000
     8  H    2.325988   0.975916   0.000000
 Stoichiometry    C2H4O2
 Framework group  C1[X(C2H4O2)]
 Deg. of freedom    18
 Full point group                 C1      NOp   1
 Largest Abelian subgroup         C1      NOp   1
 Largest concise Abelian subgroup C1      NOp   1
                         Standard orientation:                         
 ---------------------------------------------------------------------
 Center     Atomic      Atomic             Coordinates (Angstroms)
 Number     Number       Type             X           Y           Z
 ---------------------------------------------------------------------
      1          6           0        1.405531   -0.085135    0.015934
      2          1           0        1.656598   -1.152719   -0.020512
      3          1           0        1.839870    0.333512    0.930124
      4          1           0        1.905629    0.402191   -0.828679
      5          6           0       -0.070747    0.143965   -0.044982
      6          8           0       -0.705656    1.180395    0.006540
      7          8           0       -0.758269   -1.058122   -0.019258
      8          1           0       -1.699405   -0.914152    0.195096
 ---------------------------------------------------------------------
 Rotational constants (GHZ):     11.3543669      9.1606283      5.2419340
 Standard basis: VSTO-6G (5D, 7F)
 There are    20 symmetry adapted cartesian basis functions of A   symmetry.
 There are    20 symmetry adapted basis functions of A   symmetry.
    20 basis functions,   120 primitive gaussians,    20 cartesian basis functions
    12 alpha electrons       12 beta electrons
       nuclear repulsion energy        89.0705501578 Hartrees.
 Integral buffers will be    262144 words long.
 Regular integral format.
 Two-electron integral symmetry is turned off.
 Do NDO integrals.
 One-electron integrals computed using PRISM.
 NBasis=    20 RedAO= F EigKep=  0.00D+00  NBF=    20
 NBsUse=    20 1.00D-04 EigRej=  0.00D+00 NBFU=    20
 Initial guess from the checkpoint file:  "C:\G09W\gxx.chk"
 B after Tr=     0.000000    0.000000    0.000000
         Rot=    0.998034    0.002179    0.000264    0.062633 Ang=   7.19 deg.
 Overlap will be assumed to be unity.
 Keep J ints in memory in canonical form, NReq=881737.
 Requested convergence on RMS density matrix=1.00D-08 within 128 cycles.
 Requested convergence on MAX density matrix=1.00D-06.
 Requested convergence on             energy=1.00D-06.
 No special actions if energy rises.
 SCF Done:  E(RPM6) = -0.159062115898     A.U. after   12 cycles
            NFock= 11  Conv=0.41D-08     -V/T= 0.9874
 Calling FoFJK, ICntrl=      2127 FMM=F ISym2X=0 I1Cent= 0 IOpClX= 0 NMat=1 NMatS=1 NMatT=0.
 ***** Axes restored to original set *****
 -------------------------------------------------------------------
 Center     Atomic                   Forces (Hartrees/Bohr)
 Number     Number              X              Y              Z
 -------------------------------------------------------------------
      1        6          -0.000472315    0.001198797    0.013473411
      2        1           0.001191836   -0.002535379   -0.000450938
      3        1           0.001690868    0.002438868   -0.001399599
      4        1          -0.003618055   -0.000087093   -0.000405292
      5        6           0.005368026    0.012637843   -0.008636007
      6        8          -0.001660627   -0.014873814   -0.003267951
      7        8          -0.007184735   -0.000181656   -0.009393139
      8        1           0.004685002    0.001402434    0.010079516
 -------------------------------------------------------------------
 Cartesian Forces:  Max     0.014873814 RMS     0.006385039

 GradGradGradGradGradGradGradGradGradGradGradGradGradGradGradGradGradGrad
 Berny optimization.
 Using GEDIIS/GDIIS optimizer.
 FormGI is forming the generalized inverse of G from B-inverse, IUseBI=4.
 Internal  Forces:  Max     0.014884947 RMS     0.004763295
 Search for a local minimum.
 Step number   6 out of a maximum of   35
 All quantities printed in internal units (Hartrees-Bohrs-Radians)
 Mixed Optimization -- RFO/linear search
 Update second derivatives using D2CorX and points    5    6
 DE= -3.12D-03 DEPred=-5.08D-03 R= 6.14D-01
 TightC=F SS=  1.41D+00  RLast= 2.93D-01 DXNew= 2.6969D+00 8.7810D-01
 Trust test= 6.14D-01 RLast= 2.93D-01 DXMaxT set to 1.60D+00
 ITU=  1  1  1  1  1  0
 Use linear search instead of GDIIS.
     Eigenvalues ---    0.00237   0.00590   0.03848   0.06851   0.07002
     Eigenvalues ---    0.13303   0.16047   0.16334   0.16645   0.19819
     Eigenvalues ---    0.25337   0.32096   0.35819   0.37236   0.37272
     Eigenvalues ---    0.44065   0.57245   0.87921
 RFO step:  Lambda=-3.52657781D-03 EMin= 2.36831081D-03
 Quartic linear search produced a step of -0.25779.
 Iteration  1 RMS(Cart)=  0.05950095 RMS(Int)=  0.04434276
 Iteration  2 RMS(Cart)=  0.04191652 RMS(Int)=  0.00345485
 Iteration  3 RMS(Cart)=  0.00325742 RMS(Int)=  0.00039515
 Iteration  4 RMS(Cart)=  0.00001356 RMS(Int)=  0.00039504
 Iteration  5 RMS(Cart)=  0.00000000 RMS(Int)=  0.00039504
 Variable       Old X    -DE/DX   Delta X   Delta X   Delta X     New X
                                 (Linear)    (Quad)   (Total)
    R1        2.07362   0.00281   0.01131   0.00062   0.01193   2.08556
    R2        2.06980   0.00271   0.01355  -0.00189   0.01166   2.08145
    R3        2.07092   0.00359   0.01530  -0.00241   0.01288   2.08380
    R4        2.82550  -0.00885  -0.01058  -0.00311  -0.01369   2.81181
    R5        2.29891  -0.01488  -0.01317  -0.00071  -0.01389   2.28503
    R6        2.61736  -0.00206   0.00341  -0.00813  -0.00472   2.61264
    R7        1.84421   0.00962   0.00231   0.01691   0.01921   1.86343
    A1        1.88479   0.00074  -0.00668  -0.00150  -0.00795   1.87684
    A2        1.87825  -0.00004  -0.01211   0.00833  -0.00367   1.87457
    A3        1.95371   0.00049   0.01221  -0.00355   0.00884   1.96255
    A4        1.86748   0.00058  -0.01228   0.00538  -0.00683   1.86065
    A5        1.94655  -0.00310   0.00620  -0.01021  -0.00384   1.94271
    A6        1.92947   0.00142   0.00966   0.00247   0.01223   1.94170
    A7        2.27066   0.00009   0.02415   0.00469   0.02777   2.29843
    A8        1.93518  -0.00158  -0.03030   0.00513  -0.02625   1.90893
    A9        2.07095   0.00198   0.00738  -0.00183   0.00447   2.07542
   A10        1.93343   0.00716   0.04464  -0.00676   0.03788   1.97131
    D1        3.10401   0.00173   0.00950   0.03456   0.04413  -3.13505
    D2        0.08774  -0.00312  -0.00606  -0.04324  -0.04945   0.03829
    D3        0.99005   0.00263   0.00451   0.04622   0.05090   1.04094
    D4       -2.02623  -0.00221  -0.01105  -0.03158  -0.04267  -2.06890
    D5       -1.08543   0.00297   0.00941   0.04444   0.05394  -1.03149
    D6        2.18148  -0.00187  -0.00615  -0.03336  -0.03963   2.14185
    D7        2.86094   0.00570  -0.00200   0.39402   0.39167  -3.03058
    D8       -0.17148   0.00160  -0.01655   0.32578   0.30958   0.13810
         Item               Value     Threshold  Converged?
 Maximum Force            0.014885     0.000450     NO 
 RMS     Force            0.004763     0.000300     NO 
 Maximum Displacement     0.239294     0.001800     NO 
 RMS     Displacement     0.099250     0.001200     NO 
 Predicted change in Energy=-2.677145D-03
 GradGradGradGradGradGradGradGradGradGradGradGradGradGradGradGradGradGrad

                          Input orientation:                          
 ---------------------------------------------------------------------
 Center     Atomic      Atomic             Coordinates (Angstroms)
 Number     Number       Type             X           Y           Z
 ---------------------------------------------------------------------
      1          6           0       -1.619807   -1.626580    0.006575
      2          1           0       -1.239847   -2.659615   -0.073844
      3          1           0       -1.441159   -1.131035   -0.960756
      4          1           0       -2.713625   -1.686336    0.132815
      5          6           0       -0.988211   -0.874350    1.124260
      6          8           0       -1.145771    0.256265    1.523022
      7          8           0       -0.043519   -1.674602    1.739567
      8          1           0        0.338057   -1.264430    2.551058
 ---------------------------------------------------------------------
                    Distance matrix (angstroms):
                    1          2          3          4          5
     1  C    0.000000
     2  H    1.103629   0.000000
     3  H    1.101458   1.778678   0.000000
     4  H    1.102699   1.778202   1.767323   0.000000
     5  C    1.487945   2.164704   2.149032   2.149264   0.000000
     6  O    2.463621   3.325836   2.860247   2.857366   1.209185
     7  O    2.343128   2.385353   3.088787   3.116288   1.382552
     8  H    3.230910   3.365476   3.939066   3.916461   1.986682
                    6          7          8
     6  O    0.000000
     7  O    2.233853   0.000000
     8  H    2.360322   0.986083   0.000000
 Stoichiometry    C2H4O2
 Framework group  C1[X(C2H4O2)]
 Deg. of freedom    18
 Full point group                 C1      NOp   1
 Largest Abelian subgroup         C1      NOp   1
 Largest concise Abelian subgroup C1      NOp   1
                         Standard orientation:                         
 ---------------------------------------------------------------------
 Center     Atomic      Atomic             Coordinates (Angstroms)
 Number     Number       Type             X           Y           Z
 ---------------------------------------------------------------------
      1          6           0        1.398137   -0.054407   -0.002790
      2          1           0        1.672341   -1.123235   -0.023201
      3          1           0        1.863090    0.390464    0.891145
      4          1           0        1.871937    0.424404   -0.875830
      5          6           0       -0.075091    0.154321   -0.006650
      6          8           0       -0.744751    1.161079    0.004393
      7          8           0       -0.712173   -1.072513    0.014601
      8          1           0       -1.690251   -0.999643   -0.087433
 ---------------------------------------------------------------------
 Rotational constants (GHZ):     11.4070217      9.2311909      5.2709334
 Standard basis: VSTO-6G (5D, 7F)
 There are    20 symmetry adapted cartesian basis functions of A   symmetry.
 There are    20 symmetry adapted basis functions of A   symmetry.
    20 basis functions,   120 primitive gaussians,    20 cartesian basis functions
    12 alpha electrons       12 beta electrons
       nuclear repulsion energy        89.1297503777 Hartrees.
 Integral buffers will be    262144 words long.
 Regular integral format.
 Two-electron integral symmetry is turned off.
 Do NDO integrals.
 One-electron integrals computed using PRISM.
 NBasis=    20 RedAO= F EigKep=  0.00D+00  NBF=    20
 NBsUse=    20 1.00D-04 EigRej=  0.00D+00 NBFU=    20
 Initial guess from the checkpoint file:  "C:\G09W\gxx.chk"
 B after Tr=     0.000000    0.000000    0.000000
         Rot=    0.999897    0.001104   -0.001381   -0.014215 Ang=   1.64 deg.
 Overlap will be assumed to be unity.
 Keep J ints in memory in canonical form, NReq=881737.
 Requested convergence on RMS density matrix=1.00D-08 within 128 cycles.
 Requested convergence on MAX density matrix=1.00D-06.
 Requested convergence on             energy=1.00D-06.
 No special actions if energy rises.
 SCF Done:  E(RPM6) = -0.160720445240     A.U. after   12 cycles
            NFock= 11  Conv=0.19D-08     -V/T= 0.9873
 Calling FoFJK, ICntrl=      2127 FMM=F ISym2X=0 I1Cent= 0 IOpClX= 0 NMat=1 NMatS=1 NMatT=0.
 ***** Axes restored to original set *****
 -------------------------------------------------------------------
 Center     Atomic                   Forces (Hartrees/Bohr)
 Number     Number              X              Y              Z
 -------------------------------------------------------------------
      1        6          -0.000538160    0.001810337    0.001814283
      2        1           0.000414566    0.000503855    0.000394357
      3        1           0.000578346    0.000639716    0.000110551
      4        1           0.000382688    0.000453378    0.000629634
      5        6           0.003155647    0.001128938   -0.001699906
      6        8          -0.002575791   -0.004048128   -0.001854134
      7        8          -0.004316037   -0.002537364   -0.000679794
      8        1           0.002898741    0.002049267    0.001285008
 -------------------------------------------------------------------
 Cartesian Forces:  Max     0.004316037 RMS     0.001929036

 GradGradGradGradGradGradGradGradGradGradGradGradGradGradGradGradGradGrad
 Berny optimization.
 Using GEDIIS/GDIIS optimizer.
 FormGI is forming the generalized inverse of G from B-inverse, IUseBI=4.
 Internal  Forces:  Max     0.004293063 RMS     0.001743225
 Search for a local minimum.
 Step number   7 out of a maximum of   35
 All quantities printed in internal units (Hartrees-Bohrs-Radians)
 Mixed Optimization -- RFO/linear search
 Update second derivatives using D2CorX and points    5    6    7
 DE= -1.66D-03 DEPred=-2.68D-03 R= 6.19D-01
 TightC=F SS=  1.41D+00  RLast= 5.17D-01 DXNew= 2.6969D+00 1.5502D+00
 Trust test= 6.19D-01 RLast= 5.17D-01 DXMaxT set to 1.60D+00
 ITU=  1  1  1  1  1  1  0
 Use linear search instead of GDIIS.
     Eigenvalues ---    0.00237   0.01545   0.03210   0.06642   0.06920
     Eigenvalues ---    0.11602   0.16046   0.16152   0.16640   0.19476
     Eigenvalues ---    0.25582   0.31602   0.35724   0.37249   0.37268
     Eigenvalues ---    0.43846   0.56721   0.87577
 RFO step:  Lambda=-5.30581522D-04 EMin= 2.36852945D-03
 Quartic linear search produced a step of -0.20117.
 Iteration  1 RMS(Cart)=  0.02822901 RMS(Int)=  0.00182814
 Iteration  2 RMS(Cart)=  0.00191350 RMS(Int)=  0.00014812
 Iteration  3 RMS(Cart)=  0.00000641 RMS(Int)=  0.00014805
 Iteration  4 RMS(Cart)=  0.00000000 RMS(Int)=  0.00014805
 Variable       Old X    -DE/DX   Delta X   Delta X   Delta X     New X
                                 (Linear)    (Quad)   (Total)
    R1        2.08556  -0.00036  -0.00240  -0.00144  -0.00384   2.08171
    R2        2.08145   0.00028  -0.00235  -0.00024  -0.00259   2.07887
    R3        2.08380  -0.00033  -0.00259  -0.00136  -0.00395   2.07985
    R4        2.81181  -0.00429   0.00275  -0.01571  -0.01296   2.79885
    R5        2.28503  -0.00406   0.00279  -0.00470  -0.00191   2.28312
    R6        2.61264  -0.00042   0.00095  -0.00045   0.00050   2.61314
    R7        1.86343   0.00303  -0.00386   0.00813   0.00427   1.86769
    A1        1.87684   0.00064   0.00160   0.00388   0.00544   1.88228
    A2        1.87457   0.00083   0.00074   0.00809   0.00883   1.88341
    A3        1.96255  -0.00053  -0.00178  -0.00415  -0.00594   1.95661
    A4        1.86065   0.00086   0.00137   0.00737   0.00872   1.86937
    A5        1.94271  -0.00088   0.00077  -0.00952  -0.00878   1.93392
    A6        1.94170  -0.00076  -0.00246  -0.00428  -0.00675   1.93495
    A7        2.29843  -0.00348  -0.00559  -0.01705  -0.02260   2.27583
    A8        1.90893   0.00128   0.00528   0.00984   0.01516   1.92408
    A9        2.07542   0.00222  -0.00090   0.00870   0.00783   2.08325
   A10        1.97131   0.00037  -0.00762   0.00942   0.00180   1.97312
    D1       -3.13505   0.00035  -0.00888   0.02306   0.01407  -3.12098
    D2        0.03829  -0.00061   0.00995  -0.03524  -0.02514   0.01315
    D3        1.04094   0.00052  -0.01024   0.02775   0.01737   1.05832
    D4       -2.06890  -0.00044   0.00858  -0.03056  -0.02184  -2.09074
    D5       -1.03149   0.00052  -0.01085   0.02755   0.01655  -1.01494
    D6        2.14185  -0.00045   0.00797  -0.03076  -0.02267   2.11919
    D7       -3.03058  -0.00157  -0.07879  -0.02501  -0.10333  -3.13391
    D8        0.13810  -0.00228  -0.06228  -0.07420  -0.13694   0.00116
         Item               Value     Threshold  Converged?
 Maximum Force            0.004293     0.000450     NO 
 RMS     Force            0.001743     0.000300     NO 
 Maximum Displacement     0.066219     0.001800     NO 
 RMS     Displacement     0.028060     0.001200     NO 
 Predicted change in Energy=-3.886825D-04
 GradGradGradGradGradGradGradGradGradGradGradGradGradGradGradGradGradGrad

                          Input orientation:                          
 ---------------------------------------------------------------------
 Center     Atomic      Atomic             Coordinates (Angstroms)
 Number     Number       Type             X           Y           Z
 ---------------------------------------------------------------------
      1          6           0       -1.619668   -1.625869    0.004319
      2          1           0       -1.243542   -2.658180   -0.075523
      3          1           0       -1.427636   -1.121964   -0.954535
      4          1           0       -2.711791   -1.672500    0.132526
      5          6           0       -0.988347   -0.887558    1.122331
      6          8           0       -1.166634    0.241052    1.514936
      7          8           0       -0.069362   -1.693246    1.769256
      8          1           0        0.373099   -1.242416    2.529386
 ---------------------------------------------------------------------
                    Distance matrix (angstroms):
                    1          2          3          4          5
     1  C    0.000000
     2  H    1.101595   0.000000
     3  H    1.100090   1.779469   0.000000
     4  H    1.100611   1.780619   1.770267   0.000000
     5  C    1.481087   2.152923   2.135718   2.136846   0.000000
     6  O    2.443890   3.307721   2.832705   2.821392   1.208175
     7  O    2.350105   2.390190   3.096823   3.108336   1.382816
     8  H    3.239463   3.376901   3.923628   3.930198   1.989789
                    6          7          8
     6  O    0.000000
     7  O    2.238347   0.000000
     8  H    2.366551   0.988340   0.000000
 Stoichiometry    C2H4O2
 Framework group  C1[X(C2H4O2)]
 Deg. of freedom    18
 Full point group                 C1      NOp   1
 Largest Abelian subgroup         C1      NOp   1
 Largest concise Abelian subgroup C1      NOp   1
                         Standard orientation:                         
 ---------------------------------------------------------------------
 Center     Atomic      Atomic             Coordinates (Angstroms)
 Number     Number       Type             X           Y           Z
 ---------------------------------------------------------------------
      1          6           0        1.391614   -0.095226   -0.000659
      2          1           0        1.632171   -1.170103   -0.017483
      3          1           0        1.862732    0.341763    0.892250
      4          1           0        1.865208    0.371393   -0.877767
      5          6           0       -0.069195    0.149000    0.002423
      6          8           0       -0.689728    1.185638   -0.000523
      7          8           0       -0.755021   -1.051756    0.000183
      8          1           0       -1.736634   -0.936750   -0.004870
 ---------------------------------------------------------------------
 Rotational constants (GHZ):     11.3500705      9.3224145      5.2875434
 Standard basis: VSTO-6G (5D, 7F)
 There are    20 symmetry adapted cartesian basis functions of A   symmetry.
 There are    20 symmetry adapted basis functions of A   symmetry.
    20 basis functions,   120 primitive gaussians,    20 cartesian basis functions
    12 alpha electrons       12 beta electrons
       nuclear repulsion energy        89.1909880308 Hartrees.
 Integral buffers will be    262144 words long.
 Regular integral format.
 Two-electron integral symmetry is turned off.
 Do NDO integrals.
 One-electron integrals computed using PRISM.
 NBasis=    20 RedAO= F EigKep=  0.00D+00  NBF=    20
 NBsUse=    20 1.00D-04 EigRej=  0.00D+00 NBFU=    20
 Initial guess from the checkpoint file:  "C:\G09W\gxx.chk"
 B after Tr=     0.000000    0.000000    0.000000
         Rot=    0.999845    0.000132   -0.000200    0.017599 Ang=   2.02 deg.
 Overlap will be assumed to be unity.
 Keep J ints in memory in canonical form, NReq=881737.
 Requested convergence on RMS density matrix=1.00D-08 within 128 cycles.
 Requested convergence on MAX density matrix=1.00D-06.
 Requested convergence on             energy=1.00D-06.
 No special actions if energy rises.
 SCF Done:  E(RPM6) = -0.161068893357     A.U. after   10 cycles
            NFock= 10  Conv=0.35D-08     -V/T= 0.9872
 Calling FoFJK, ICntrl=      2127 FMM=F ISym2X=0 I1Cent= 0 IOpClX= 0 NMat=1 NMatS=1 NMatT=0.
 ***** Axes restored to original set *****
 -------------------------------------------------------------------
 Center     Atomic                   Forces (Hartrees/Bohr)
 Number     Number              X              Y              Z
 -------------------------------------------------------------------
      1        6           0.000661653   -0.000819401    0.000071809
      2        1          -0.000042870   -0.001042717   -0.000556044
      3        1          -0.000001509    0.000407635   -0.001331871
      4        1          -0.001043866   -0.000118430   -0.000082734
      5        6           0.001526878    0.001581261    0.003929869
      6        8           0.000350512   -0.000896065   -0.000512701
      7        8          -0.002249067   -0.000349672   -0.002950091
      8        1           0.000798269    0.001237389    0.001431763
 -------------------------------------------------------------------
 Cartesian Forces:  Max     0.003929869 RMS     0.001371274

 GradGradGradGradGradGradGradGradGradGradGradGradGradGradGradGradGradGrad
 Berny optimization.
 Using GEDIIS/GDIIS optimizer.
 FormGI is forming the generalized inverse of G from B-inverse, IUseBI=4.
 Internal  Forces:  Max     0.002399278 RMS     0.000940780
 Search for a local minimum.
 Step number   8 out of a maximum of   35
 All quantities printed in internal units (Hartrees-Bohrs-Radians)
 Mixed Optimization -- En-DIIS/RFO-DIIS
 Update second derivatives using D2CorX and points    5    6    7    8
 DE= -3.48D-04 DEPred=-3.89D-04 R= 8.96D-01
 TightC=F SS=  1.41D+00  RLast= 1.82D-01 DXNew= 2.6969D+00 5.4663D-01
 Trust test= 8.96D-01 RLast= 1.82D-01 DXMaxT set to 1.60D+00
 ITU=  1  1  1  1  1  1  1  0
 Use linear search instead of GDIIS.
     Eigenvalues ---    0.00237   0.01536   0.03379   0.06761   0.07017
     Eigenvalues ---    0.12407   0.16040   0.16246   0.16915   0.19766
     Eigenvalues ---    0.25033   0.34619   0.36991   0.37236   0.37642
     Eigenvalues ---    0.44366   0.55323   0.85656
 RFO step:  Lambda=-5.17157782D-05 EMin= 2.36835071D-03
 Quartic linear search produced a step of -0.07866.
 Iteration  1 RMS(Cart)=  0.00321058 RMS(Int)=  0.00001327
 Iteration  2 RMS(Cart)=  0.00000850 RMS(Int)=  0.00000959
 Iteration  3 RMS(Cart)=  0.00000000 RMS(Int)=  0.00000959
 Variable       Old X    -DE/DX   Delta X   Delta X   Delta X     New X
                                 (Linear)    (Quad)   (Total)
    R1        2.08171   0.00100   0.00030   0.00219   0.00249   2.08421
    R2        2.07887   0.00135   0.00020   0.00326   0.00346   2.08233
    R3        2.07985   0.00103   0.00031   0.00248   0.00279   2.08265
    R4        2.79885   0.00240   0.00102   0.00485   0.00587   2.80472
    R5        2.28312  -0.00106   0.00015  -0.00175  -0.00160   2.28152
    R6        2.61314  -0.00219  -0.00004  -0.00445  -0.00448   2.60866
    R7        1.86769   0.00202  -0.00034   0.00336   0.00302   1.87072
    A1        1.88228  -0.00048  -0.00043  -0.00153  -0.00196   1.88032
[...]
                      A                      A                      A
 Frequencies --    513.4344               592.1551               952.0289
 Red. masses --      4.5722                 1.6884                 2.1122
 Frc consts  --      0.7101                 0.3488                 1.1280
 IR Inten    --     49.9231               146.8825                10.9076
  Atom  AN      X      Y      Z        X      Y      Z        X      Y      Z
     1   6     0.22  -0.05   0.00     0.00   0.00   0.02     0.11   0.14   0.00
     2   1     0.06  -0.10   0.00     0.00   0.00  -0.10    -0.58  -0.08   0.00
     3   1     0.30  -0.14   0.00     0.23  -0.03  -0.09     0.45  -0.27  -0.01
     4   1     0.32  -0.15   0.00    -0.23   0.03  -0.09     0.46  -0.27   0.01
     5   6     0.21   0.04   0.00     0.00   0.00   0.19     0.01   0.07   0.00
     6   8    -0.26  -0.22   0.00     0.00   0.00  -0.08    -0.01   0.06   0.00
     7   8    -0.10   0.20   0.00     0.00   0.00  -0.12    -0.10  -0.18   0.00
     8   1    -0.08   0.69   0.01     0.00   0.00   0.90    -0.08  -0.02   0.00
                      7                      8                      9
                      A                      A                      A
 Frequencies --   1020.6622              1035.2291              1146.5790
 Red. masses --      2.4118                 1.5875                 1.6041
 Frc consts  --      1.4803                 1.0024                 1.2424
 IR Inten    --      4.1438                96.5993               157.3070
  Atom  AN      X      Y      Z        X      Y      Z        X      Y      Z
     1   6     0.23  -0.14   0.00     0.00   0.00   0.16     0.06   0.06   0.00
     2   1     0.80   0.06   0.00    -0.02   0.00  -0.22    -0.22  -0.02   0.00
     3   1     0.03   0.13  -0.03     0.64  -0.10  -0.20     0.13  -0.12   0.02
     4   1    -0.01   0.13   0.02    -0.63   0.10  -0.20     0.14  -0.12  -0.03
     5   6    -0.09   0.05   0.00     0.00   0.00  -0.16    -0.07  -0.07   0.00
     6   8    -0.09   0.13   0.00     0.00   0.00   0.03     0.03  -0.07   0.00
     7   8    -0.06  -0.06   0.00     0.00   0.00   0.02    -0.03   0.15   0.00
     8   1    -0.05  -0.45   0.00     0.00   0.01   0.03     0.00  -0.92   0.00
                     10                     11                     12
                      A                      A                      A
 Frequencies --   1203.8492              1217.3432              1304.0226
 Red. masses --      1.0637                 1.0635                 1.7649
 Frc consts  --      0.9082                 0.9285                 1.7683
 IR Inten    --     56.2953                79.6143               200.3154
  Atom  AN      X      Y      Z        X      Y      Z        X      Y      Z
     1   6     0.02   0.07   0.00     0.00   0.00  -0.07     0.02  -0.03   0.00
     2   1     0.26   0.10   0.01     0.00  -0.01   0.76    -0.35  -0.12   0.00
     3   1    -0.27  -0.47   0.40     0.19  -0.41   0.06    -0.46   0.25   0.14
     4   1    -0.27  -0.46  -0.42    -0.19   0.41   0.08    -0.47   0.26  -0.14
     5   6     0.00   0.00   0.00     0.00   0.00   0.00     0.18   0.15   0.00
     6   8     0.00   0.00   0.00     0.00   0.00   0.00     0.01  -0.03   0.00
     7   8     0.00  -0.01   0.00     0.00   0.00   0.00    -0.08  -0.05   0.00
     8   1     0.00   0.05   0.00     0.00   0.00   0.00     0.01  -0.44   0.00
                     13                     14                     15
                      A                      A                      A
 Frequencies --   1319.0922              1839.1963              2550.0219
 Red. masses --      1.8431                10.3153                 1.0525
 Frc consts  --      1.8895                20.5583                 4.0323
 IR Inten    --    344.6896               505.7669               297.3661
  Atom  AN      X      Y      Z        X      Y      Z        X      Y      Z
     1   6     0.20  -0.01   0.00     0.09  -0.05   0.00     0.00   0.00   0.00
     2   1    -0.64  -0.20   0.00     0.23   0.11   0.00     0.00   0.01   0.00
     3   1    -0.34   0.18   0.15     0.01   0.02  -0.08     0.00   0.00  -0.01
     4   1    -0.34   0.18  -0.15     0.01   0.02   0.08     0.00   0.00   0.01
     5   6    -0.14  -0.10   0.00    -0.46   0.58   0.00     0.02   0.01   0.00
     6   8    -0.01   0.03   0.00     0.24  -0.40   0.00     0.00   0.00   0.00
     7   8     0.05   0.02   0.00     0.02  -0.03   0.00     0.05   0.00   0.00
     8   1    -0.02   0.36   0.00     0.00   0.39   0.00    -1.00  -0.04   0.00
                     16                     17                     18
                      A                      A                      A
 Frequencies --   2676.5230              2682.4479              2779.9811
 Red. masses --      1.0865                 1.0883                 1.0317
 Frc consts  --      4.5857                 4.6138                 4.6975
 IR Inten    --    151.2078               131.1612                74.5951
  Atom  AN      X      Y      Z        X      Y      Z        X      Y      Z
     1   6     0.00   0.00   0.08    -0.01  -0.08   0.00     0.04  -0.01   0.00
     2   1     0.01  -0.03   0.04    -0.22   0.78   0.01    -0.14   0.56   0.01
     3   1    -0.34  -0.29  -0.56     0.17   0.12   0.32    -0.25  -0.23  -0.47
     4   1     0.32   0.30  -0.53     0.20   0.15  -0.36    -0.25  -0.24   0.46
     5   6     0.00   0.00   0.00     0.00   0.00   0.00     0.01   0.00   0.00
     6   8     0.00   0.00   0.00     0.00   0.00   0.00     0.00   0.00   0.00
     7   8     0.00   0.00   0.00     0.00   0.00   0.00     0.00   0.00   0.00
     8   1     0.00   0.00   0.00     0.00   0.00   0.00     0.01   0.00   0.00

 -------------------
 - Thermochemistry -
 -------------------
 Temperature   298.150 Kelvin.  Pressure   1.00000 Atm.
 Atom     1 has atomic number  6 and mass  12.00000
 Atom     2 has atomic number  1 and mass   1.00783
 Atom     3 has atomic number  1 and mass   1.00783
 Atom     4 has atomic number  1 and mass   1.00783
 Atom     5 has atomic number  6 and mass  12.00000
 Atom     6 has atomic number  8 and mass  15.99491
 Atom     7 has atomic number  8 and mass  15.99491
 Atom     8 has atomic number  1 and mass   1.00783
 Molecular mass:    60.02113 amu.
 Principal axes and moments of inertia in atomic units:
                           1         2         3
     Eigenvalues --   158.87981 193.78375 341.36563
           X            0.99465   0.10328   0.00002
           Y           -0.10328   0.99465  -0.00002
           Z           -0.00002   0.00002   1.00000
 This molecule is an asymmetric top.
 Rotational symmetry number  1.
 Rotational temperatures (Kelvin)      0.54515     0.44696     0.25373
 Rotational constants (GHZ):          11.35916     9.31317     5.28683
 Zero-point vibrational energy     142148.3 (Joules/Mol)
                                   33.97427 (Kcal/Mol)
 Warning -- explicit consideration of   5 degrees of freedom as
           vibrations may cause significant error
 Vibrational temperatures:     77.07   539.90   725.09   738.72   851.98
          (Kelvin)           1369.76  1468.50  1489.46  1649.67  1732.07
                             1751.48  1876.20  1897.88  2646.19  3668.91
                             3850.91  3859.44  3999.77
 
 Zero-point correction=                           0.054141 (Hartree/Particle)
 Thermal correction to Energy=                    0.058921
 Thermal correction to Enthalpy=                  0.059866
 Thermal correction to Gibbs Free Energy=         0.026603
 Sum of electronic and zero-point Energies=             -0.106968
 Sum of electronic and thermal Energies=                -0.102188
 Sum of electronic and thermal Enthalpies=              -0.101244
 Sum of electronic and thermal Free Energies=           -0.134506
 
                     E (Thermal)             CV                S
                      KCal/Mol        Cal/Mol-Kelvin    Cal/Mol-Kelvin
 Total                   36.974             15.048             70.007
 Electronic               0.000              0.000              0.000
 Translational            0.889              2.981             38.196
 Rotational               0.889              2.981             23.867
 Vibrational             35.196              9.086              7.943
 Vibration     1          0.596              1.976              4.681
 Vibration     2          0.746              1.523              1.058
 Vibration     3          0.859              1.241              0.648
 Vibration     4          0.869              1.220              0.625
 Vibration     5          0.950              1.048              0.463
                       Q            Log10(Q)             Ln(Q)
 Total Bot       0.579921D-12        -12.236631        -28.175884
 Total V=0       0.464140D+13         12.666649         29.166038
 Vib (Bot)       0.864586D-24        -24.063192        -55.407547
 Vib (Bot)    1  0.385769D+01          0.586327          1.350069
 Vib (Bot)    2  0.483425D+00         -0.315671         -0.726859
 Vib (Bot)    3  0.324972D+00         -0.488154         -1.124016
 Vib (Bot)    4  0.316269D+00         -0.499943         -1.151162
 Vib (Bot)    5  0.254196D+00         -0.594832         -1.369651
 Vib (V=0)       0.691972D+01          0.840088          1.934375
 Vib (V=0)    1  0.438996D+01          0.642460          1.479320
 Vib (V=0)    2  0.119549D+01          0.077544          0.178552
 Vib (V=0)    3  0.109633D+01          0.039940          0.091966
 Vib (V=0)    4  0.109163D+01          0.038075          0.087672
 Vib (V=0)    5  0.106091D+01          0.025677          0.059123
 Electronic      0.100000D+01          0.000000          0.000000
 Translational   0.182773D+08          7.261911         16.721169
 Rotational      0.366986D+05          4.564649         10.510494
 ***** Axes restored to original set *****
 -------------------------------------------------------------------
 Center     Atomic                   Forces (Hartrees/Bohr)
 Number     Number              X              Y              Z
 -------------------------------------------------------------------
      1        6           0.000056311    0.000039970    0.000014863
      2        1          -0.000010278    0.000040226    0.000023056
      3        1          -0.000022252   -0.000026868    0.000065627
      4        1           0.000032472   -0.000004008   -0.000007480
      5        6          -0.000126331   -0.000048143   -0.000185994
      6        8           0.000031183    0.000039930    0.000058272
      7        8           0.000008069   -0.000120492   -0.000049253
      8        1           0.000030825    0.000079386    0.000080910
 -------------------------------------------------------------------
 Cartesian Forces:  Max     0.000185994 RMS     0.000065681
 FormGI is forming the generalized inverse of G from B-inverse, IUseBI=4.

 GradGradGradGradGradGradGradGradGradGradGradGradGradGradGradGradGradGrad
 Berny optimization.
 Internal  Forces:  Max     0.000121081 RMS     0.000047583
 Search for a local minimum.
 Step number   1 out of a maximum of    2
 All quantities printed in internal units (Hartrees-Bohrs-Radians)
 Second derivative matrix not updated -- analytic derivatives used.
 ITU=  0
     Eigenvalues ---    0.00015   0.01579   0.03523   0.04338   0.04458
     Eigenvalues ---    0.10439   0.11340   0.11438   0.12618   0.14384
     Eigenvalues ---    0.19151   0.25403   0.25751   0.25960   0.27936
     Eigenvalues ---    0.41549   0.46993   0.92534
 Angle between quadratic step and forces=  86.59 degrees.
 Linear search not attempted -- first point.
 Iteration  1 RMS(Cart)=  0.00644494 RMS(Int)=  0.00002004
 Iteration  2 RMS(Cart)=  0.00002250 RMS(Int)=  0.00000003
 Iteration  3 RMS(Cart)=  0.00000000 RMS(Int)=  0.00000003
 Variable       Old X    -DE/DX   Delta X   Delta X   Delta X     New X
                                 (Linear)    (Quad)   (Total)
    R1        2.08402  -0.00004   0.00000  -0.00008  -0.00008   2.08394
    R2        2.08356  -0.00007   0.00000  -0.00029  -0.00029   2.08327
    R3        2.08330  -0.00003   0.00000  -0.00003  -0.00003   2.08327
    R4        2.80511  -0.00012   0.00000  -0.00039  -0.00039   2.80473
    R5        2.28204   0.00005   0.00000   0.00008   0.00008   2.28212
    R6        2.60659   0.00006   0.00000   0.00034   0.00034   2.60694
    R7        1.87784   0.00011   0.00000   0.00061   0.00061   1.87845
    A1        1.88003   0.00002   0.00000   0.00060   0.00060   1.88063
    A2        1.88118   0.00000   0.00000  -0.00055  -0.00055   1.88063
    A3        1.96265  -0.00003   0.00000  -0.00021  -0.00021   1.96243
    A4        1.86639  -0.00001   0.00000  -0.00014  -0.00014   1.86625
    A5        1.93475   0.00000   0.00000   0.00027   0.00027   1.93502
    A6        1.93499   0.00001   0.00000   0.00004   0.00004   1.93502
    A7        2.27456   0.00007   0.00000   0.00053   0.00053   2.27509
    A8        1.92097   0.00000   0.00000   0.00000   0.00000   1.92097
    A9        2.08766  -0.00006   0.00000  -0.00053  -0.00053   2.08713
   A10        1.96938  -0.00006   0.00000  -0.00071  -0.00071   1.96867
    D1       -3.12912   0.00001   0.00000  -0.01245  -0.01245  -3.14157
    D2        0.01272   0.00000   0.00000  -0.01270  -0.01270   0.00002
    D3        1.04835   0.00000   0.00000  -0.01326  -0.01326   1.03508
    D4       -2.09300   0.00000   0.00000  -0.01351  -0.01351  -2.10651
    D5       -1.02175   0.00000   0.00000  -0.01328  -0.01328  -1.03503
    D6        2.12009  -0.00001   0.00000  -0.01353  -0.01353   2.10656
    D7        3.14110   0.00000   0.00000   0.00049   0.00049   3.14159
    D8       -0.00027   0.00000   0.00000   0.00027   0.00027   0.00000
         Item               Value     Threshold  Converged?
 Maximum Force            0.000121     0.000450     YES
 RMS     Force            0.000048     0.000300     YES
 Maximum Displacement     0.012850     0.001800     NO 
 RMS     Displacement     0.006445     0.001200     NO 
 Predicted change in Energy=-2.281145D-07
 GradGradGradGradGradGradGradGradGradGradGradGradGradGradGradGradGradGrad

 1|1|UNPC-DESKTOP-KC5UJLK|Freq|RPM6|ZDO|C2H4O2|23122|13-Mar-2022|0||#N 
 Geom=AllCheck Guess=TCheck SCRF=Check GenChk RPM6/ZDO Freq||opt freq(G
 C)||0,1|C,-1.6188831805,-1.6271210799,0.0050132254|H,-1.2450245361,-2.
 6610725614,-0.0808705326|H,-1.4279996417,-1.1204287334,-0.9554526668|H
 ,-2.7130346508,-1.6741078985,0.1314363345|C,-0.9882607568,-0.887650404
 2,1.1270415472|O,-1.1639139313,0.2424442758,1.514779012|O,-0.072638459
 5,-1.6943257878,1.7700954538|H,0.3758730067,-1.2384192105,2.5306541765
 ||Version=IA32W-G09RevD.01|State=1-A|HF=-0.1611096|RMSD=3.427e-010|RMS
 F=6.568e-005|ZeroPoint=0.0541414|Thermal=0.0589215|Dipole=-0.042261,-0
 .6847578,-0.4101556|DipoleDeriv=-0.9052188,-0.031779,-0.0716867,0.0079
 753,-0.8632126,0.0059941,-0.0507162,-0.0408,-0.9409547,0.2303411,-0.02
 41582,-0.0367802,-0.0019147,0.3140445,0.0291711,-0.0253267,0.0034584,0
 .2237402,0.237299,0.0017202,-0.0280068,-0.0211695,0.2072848,-0.0668617
 ,-0.0147048,-0.0201153,0.3097061,0.3245115,0.0352286,0.0191026,0.00407
 92,0.215945,-0.036747,-0.0219194,-0.0196933,0.2131672,1.4107763,-0.587
 7282,0.493592,-0.5974171,2.0486201,0.0004663,0.4879492,0.0110731,1.298
 0091,-0.6374665,0.1106464,-0.0838833,0.2945469,-1.3095841,-0.0736843,0
 .0124617,-0.2874326,-0.6516786,-1.0627345,0.471946,-0.3202298,0.146490
 6,-0.7980804,0.054008,-0.490463,0.4324031,-0.9197646,0.4024926,0.02412
 43,0.027892,0.1674102,0.1849789,0.0876519,0.102718,-0.0788928,0.467775
 2|Polar=17.0133957,-5.8215199,29.385573,6.8835783,4.1894386,18.7013555
 |HyperPolar=-18.8761697,20.9164932,-8.2278403,-44.6805193,-0.7631481,2
 4.2750812,-30.9468765,14.7283488,13.5813188,12.0737088|PG=C01 [X(C2H4O
 2)]|NImag=0||0.41503729,0.00592597,0.43456219,0.03582181,0.03196557,0.
 44491504,-0.05736195,0.05968365,0.00485054,0.06009928,0.05762305,-0.19
 396267,-0.01268849,-0.06804933,0.23875888,0.00380613,-0.01020356,-0.03
 630144,-0.00231227,0.02469322,0.04251394,-0.03775693,-0.01455465,0.029
 47712,0.00471536,0.00455751,-0.00504189,0.03917923,-0.01483272,-0.0737
 9778,0.07403907,-0.00098798,-0.01621110,0.01810576,0.01993910,0.080456
 49,0.02857988,0.07302285,-0.17072895,-0.00076634,0.00756150,-0.0005757
 2,-0.03022174,-0.08629221,0.21595137,-0.21323012,-0.00735057,0.0221223
 0,-0.01376389,0.00808479,0.00279210,-0.00921495,-0.00400698,0.00879750
 ,0.26106544,-0.00669451,-0.03474350,0.00005580,0.02050328,-0.00195816,
 -0.00344627,-0.01080819,0.00198682,0.00524111,0.01454025,0.03465555,0.
 02327140,0.00068283,-0.03449744,0.00200460,-0.00099228,0.00367924,0.01
 917546,0.00396198,-0.00535887,-0.01999808,0.00355248,0.04004253,-0.103
 48617,-0.03509986,-0.04439289,0.00926927,-0.00310350,0.00310169,0.0066
 1354,0.00173631,-0.00536375,-0.02573961,-0.01953116,-0.02505006,0.3473
 9914,-0.03520189,-0.11433509,-0.05823855,-0.01093620,-0.02532626,-0.02
 847726,0.00080687,0.01196499,-0.00008648,-0.01412920,0.00235866,-0.007
 77560,-0.09970010,0.88488718,-0.04453302,-0.05829351,-0.16329199,-0.00
 081651,-0.01920498,-0.00561003,-0.01281534,-0.00910331,-0.04152353,-0.
 01534683,-0.00395703,0.00038978,0.14469551,0.25429055,0.47992643,0.015
 00026,-0.01158794,-0.01079913,-0.00107411,-0.00001507,-0.00167362,-0.0
 0126136,-0.00056690,-0.00045909,0.00029815,0.00164267,0.00119207,-0.06
 701671,0.08979365,0.03788324,0.06821517,-0.00708589,-0.03077610,-0.034
 47391,-0.00099883,0.00004997,-0.00134100,0.00027840,-0.00319606,0.0013
 8143,0.00285853,-0.00138916,0.00054707,0.07040616,-0.65447450,-0.22999
 907,-0.13464278,0.78272464,-0.00843777,-0.03967546,-0.01153682,-0.0022
 0845,-0.00018513,-0.00235697,0.00042392,0.00017377,0.00206985,0.001415
 35,-0.00069209,-0.00126800,0.02772221,-0.20744496,-0.13558318,-0.01897
 219,0.24093644,0.12808028,-0.01856924,-0.00001662,-0.03394016,-0.00190
 643,0.00075468,-0.00049171,-0.00170859,-0.00094615,0.00030700,0.000609
 82,0.00023271,-0.00036843,-0.14013766,0.07609598,-0.07227305,-0.013211
 56,0.07022129,-0.00241746,0.22872060,-0.00442280,0.01464279,-0.0029504
 8,0.00056177,-0.00069294,0.00087509,-0.00064220,-0.00148981,-0.0007550
 3,-0.00004716,-0.00114280,-0.00074417,0.07653400,-0.12924257,0.0442978
 8,0.05561818,-0.08319376,0.01041790,-0.10821642,0.27453185,-0.03622026
 ,0.00214128,-0.03053439,-0.00061333,0.00112347,-0.00127472,-0.00093226
 ,-0.00104625,0.00025761,0.00086376,-0.00047784,-0.00241758,-0.07202719
 ,0.04379015,-0.10468028,-0.01006051,0.02740475,0.02310807,0.17588455,0
 .00272653,0.23498160,0.00036673,0.00300004,-0.00313964,0.00002246,0.00
 014785,-0.00018044,-0.00056627,-0.00033472,-0.00087347,-0.00002479,0.0
 0011500,-0.00022692,-0.02690191,-0.00672892,-0.03679418,-0.00094965,-0
 .00103706,0.00247462,-0.05379691,-0.01938538,-0.05689473,0.08185036,0.
 00468881,-0.00158993,0.00229100,0.00022366,-0.00065770,-0.00020592,0.0
 0042312,0.00028639,-0.00007320,0.00005034,0.00023263,0.00076763,0.0087
 5836,0.02416775,0.02196973,-0.00024213,-0.00974503,-0.00353079,-0.0381
 2538,-0.07341293,-0.07566206,0.02422320,0.06071893,-0.00228824,0.00036
 003,0.00197585,-0.00013821,-0.00030731,-0.00007431,-0.00006530,0.00016
 123,-0.00009171,-0.00064608,-0.00027620,-0.00056968,-0.02868551,0.0039
 4204,-0.02962712,0.00288935,-0.00445564,-0.00251317,-0.06670075,-0.053
 86770,-0.11944030,0.09563472,0.05444361,0.15034042||-0.00005631,-0.000
 03997,-0.00001486,0.00001028,-0.00004023,-0.00002306,0.00002225,0.0000
 2687,-0.00006563,-0.00003247,0.00000401,0.00000748,0.00012633,0.000048
 14,0.00018599,-0.00003118,-0.00003993,-0.00005827,-0.00000807,0.000120
 49,0.00004925,-0.00003083,-0.00007939,-0.00008091|||@


 HONESTY IN A LAWYER IS LIKE A HEN'S HIND LEGS.
  -- MAGNUS OLESON, LAKE WOBEGON PATRIARCH, C.1875
 Job cpu time:       0 days  0 hours  0 minutes  5.0 seconds.
 File lengths (MBytes):  RWF=      5 Int=      0 D2E=      0 Chk=      1 Scr=      1
 Normal termination of Gaussian 09 at Sun Mar 13 10:35:56 2022.
