 Entering Link 1 = C:\G09W\l1.exe PID=      6160.
  
 Copyright (c) 1988,1990,1992,1993,1995,1998,2003,2009,2013,
            Gaussian, Inc.  All Rights Reserved.
  
 This is part of the Gaussian(R) 09 program.  It is based on
 the Gaussian(R) 03 system (copyright 2003, Gaussian, Inc.),
 the Gaussian(R) 98 system (copyright 1998, Gaussian, Inc.),
 the Gaussian(R) 94 system (copyright 1995, Gaussian, Inc.),
 the Gaussian 92(TM) system (copyright 1992, Gaussian, Inc.),
 the Gaussian 90(TM) system (copyright 1990, Gaussian, Inc.),
 the Gaussian 88(TM) system (copyright 1988, Gaussian, Inc.),
 the Gaussian 86(TM) system (copyright 1986, Carnegie Mellon
 University), and the Gaussian 82(TM) system (copyright 1983,
 Carnegie Mellon University). Gaussian is a federally registered
 trademark of Gaussian, Inc.
  
 This software contains proprietary and confidential information,
 including trade secrets, belonging to Gaussian, Inc.
  
 This software is provided under written license and may be
 used, copied, transmitted, or stored only in accord with that
 written license.
  
 The following legend is applicable only to US Government
 contracts under FAR:
  
                    RESTRICTED RIGHTS LEGEND
  
 Use, reproduction and disclosure by the US Government is
 subject to restrictions as set forth in subparagraphs (a)
 and (c) of the Commercial Computer Software - Restricted
 Rights clause in FAR 52.227-19.
  
 Gaussian, Inc.
 340 Quinnipiac St., Bldg. 40, Wallingford CT 06492
  
  
 ---------------------------------------------------------------
 Warning -- This program may not be used in any manner that
 competes with the business of Gaussian, Inc. or will provide
 assistance to any competitor of Gaussian, Inc.  The licensee
 of this program is prohibited from giving any competitor of
 Gaussian, Inc. access to this program.  By using this program,
 the user acknowledges that Gaussian, Inc. is engaged in the
 business of creating and licensing software in the field of
 computational chemistry and represents and warrants to the
 licensee that it is not a competitor of Gaussian, Inc. and that
 it will not use this program in any manner prohibited above.
 ---------------------------------------------------------------
  

 Cite this work as:
 Gaussian 09, Revision D.01,
 M. J. Frisch, G. W. Trucks, H. B. Schlegel, G. E. Scuseria, 
 M. A. Robb, J. R. Cheeseman, G. Scalmani, V. Barone, B. Mennucci, 
 G. A. Petersson, H. Nakatsuji, M. Caricato, X. Li, H. P. Hratchian, 
 A. F. Izmaylov, J. Bloino, G. Zheng, J. L. Sonnenberg, M. Hada, 
 M. Ehara, K. Toyota, R. Fukuda, J. Hasegawa, M. Ishida, T. Nakajima, 
 Y. Honda, O. Kitao, H. Nakai, T. Vreven, J. A. Montgomery, Jr., 
 J. E. Peralta, F. Ogliaro, M. Bearpark, J. J. Heyd, E. Brothers, 
 K. N. Kudin, V. N. Staroverov, T. Keith, R. Kobayashi, J. Normand, 
 K. Raghavachari, A. Rendell, J. C. Burant, S. S. Iyengar, J. Tomasi, 
 M. Cossi, N. Rega, J. M. Millam, M. Klene, J. E. Knox, J. B. Cross, 
 V. Bakken, C. Adamo, J. Jaramillo, R. Gomperts, R. E. Stratmann, 
 O. Yazyev, A. J. Austin, R. Cammi, C. Pomelli, J. W. Ochterski, 
 R. L. Martin, K. Morokuma, V. G. Zakrzewski, G. A. Voth, 
 P. Salvador, J. J. Dannenberg, S. Dapprich, A. D. Daniels, 
 O. Farkas, J. B. Foresman, J. V. Ortiz, J. Cioslowski, 
 and D. J. Fox, Gaussian, Inc., Wallingford CT, 2013.
 
 ******************************************
 Gaussian 09:  IA32W-G09RevD.01 24-Apr-2013
                05-Feb-2022 
 ******************************************
 %chk=D:\mindmap\gaussian\calculate\ch3n2_idea_bondlength\energy.chk
 %nprocshared=4
 Will use up to    4 processors via shared memory.
 %mem=1GB
 -------------------------------------------------------------
 # apfd/6-311+g(2d,p) pop=full geom=connectivity int=ultrafine
 -------------------------------------------------------------
 1/38=1,57=2/1;
 2/12=2,17=6,18=5,40=1/2;
 3/5=4,6=6,7=112,11=2,16=1,25=1,30=1,74=-44,75=-5/1,2,3;
 4//1;
 5/5=2,38=5/2;
 6/7=3,28=1/1;
 99/5=1,9=1/99;
 ----------------------
 Energy Calculation(GC)
 ----------------------
 Symbolic Z-matrix:
 Charge =  0 Multiplicity = 1
 N                     0.        0.        1.35937 
 N                     0.        0.        0.12737 
 C                     0.        0.       -1.16623 
 H                     0.       -0.92469  -1.70489 
 H                     0.        0.92469  -1.70489 
 
                          Input orientation:                          
 ---------------------------------------------------------------------
 Center     Atomic      Atomic             Coordinates (Angstroms)
 Number     Number       Type             X           Y           Z
 ---------------------------------------------------------------------
      1          7           0        0.000000    0.000000    1.359369
      2          7           0        0.000000    0.000000    0.127369
      3          6           0        0.000000    0.000000   -1.166231
      4          1           0        0.000000   -0.924687   -1.704886
      5          1           0        0.000000    0.924687   -1.704886
 ---------------------------------------------------------------------
                    Distance matrix (angstroms):
                    1          2          3          4          5
     1  N    0.000000
     2  N    1.232000   0.000000
     3  C    2.525600   1.293600   0.000000
     4  H    3.200735   2.052365   1.070138   0.000000
     5  H    3.200735   2.052365   1.070138   1.849375   0.000000
 Stoichiometry    CH2N2
 Framework group  C2V[C2(CNN),SGV(H2)]
 Deg. of freedom     4
 Full point group                 C2V     NOp   4
 Largest Abelian subgroup         C2V     NOp   4
 Largest concise Abelian subgroup C2      NOp   2
                         Standard orientation:                         
 ---------------------------------------------------------------------
 Center     Atomic      Atomic             Coordinates (Angstroms)
 Number     Number       Type             X           Y           Z
 ---------------------------------------------------------------------
      1          7           0        0.000000    0.000000    1.359369
      2          7           0        0.000000    0.000000    0.127369
      3          6           0        0.000000    0.000000   -1.166231
      4          1           0        0.000000    0.924687   -1.704886
      5          1           0        0.000000   -0.924687   -1.704886
 ---------------------------------------------------------------------
 Rotational constants (GHZ):    293.2325312     10.5265326     10.1617439
 Standard basis: 6-311+G(2d,p) (5D, 7F)
 There are    50 symmetry adapted cartesian basis functions of A1  symmetry.
 There are     7 symmetry adapted cartesian basis functions of A2  symmetry.
 There are    19 symmetry adapted cartesian basis functions of B1  symmetry.
 There are    23 symmetry adapted cartesian basis functions of B2  symmetry.
 There are    44 symmetry adapted basis functions of A1  symmetry.
 There are     7 symmetry adapted basis functions of A2  symmetry.
 There are    19 symmetry adapted basis functions of B1  symmetry.
 There are    23 symmetry adapted basis functions of B2  symmetry.
    93 basis functions,   142 primitive gaussians,    99 cartesian basis functions
    11 alpha electrons       11 beta electrons
       nuclear repulsion energy        59.1723816381 Hartrees.
 NAtoms=    5 NActive=    5 NUniq=    4 SFac= 1.56D+00 NAtFMM=   60 NAOKFM=F Big=F
 Integral buffers will be    262144 words long.
 Raffenetti 2 integral format.
 Two-electron integral symmetry is turned on.
 R6APFD:  NTU= -4 IXU= 1 FactS= 1.050
 Nuclear repulsion after empirical dispersion term =       59.1721569335 Hartrees.
 One-electron integrals computed using PRISM.
 NBasis=    93 RedAO= T EigKep=  1.96D-04  NBF=    44     7    19    23
 NBsUse=    93 1.00D-06 EigRej= -1.00D+00 NBFU=    44     7    19    23
 ExpMin= 4.38D-02 ExpMax= 6.29D+03 ExpMxC= 9.49D+02 IAcc=3 IRadAn=         5 AccDes= 0.00D+00
 Harris functional with IExCor= 3731 and IRadAn=       5 diagonalized for initial guess.
 HarFok:  IExCor= 3731 AccDes= 0.00D+00 IRadAn=         5 IDoV= 1 UseB2=F ITyADJ=14
 ICtDFT=  3500011 ScaDFX=  1.000000  1.000000  1.000000  1.000000
 FoFCou: FMM=F IPFlag=           0 FMFlag=      100000 FMFlg1=           0
         NFxFlg=           0 DoJE=T BraDBF=F KetDBF=T FulRan=T
         wScrn=  0.000000 ICntrl=     500 IOpCl=  0 I1Cent=   200000004 NGrid=           0
         NMat0=    1 NMatS0=      1 NMatT0=    0 NMatD0=    1 NMtDS0=    0 NMtDT0=    0
 Petite list used in FoFCou.
 Initial guess orbital symmetries:
       Occupied  (A1) (A1) (A1) (A1) (A1) (A1) (B2) (B1) (A1) (B2)
                 (B1)
       Virtual   (B2) (A1) (B1) (B2) (A1) (B1) (A1) (B2) (A1) (B1)
                 (A1) (B2) (A1) (B1) (B2) (A1) (A1) (A1) (A1) (B2)
                 (B1) (A2) (A1) (B2) (A1) (A1) (B1) (B2) (B1) (A1)
                 (B2) (B1) (A2) (A1) (B2) (A1) (A1) (A1) (A2) (B2)
                 (A1) (B1) (A1) (B1) (B2) (B1) (A2) (A1) (B2) (A1)
                 (B2) (A1) (A1) (B2) (B1) (A1) (A2) (B2) (B1) (A1)
                 (A1) (B1) (B2) (A1) (B1) (B2) (B2) (A1) (A2) (A1)
                 (A1) (A2) (A1) (B1) (B2) (B1) (B2) (A1) (A1) (A1)
                 (A1) (A1)
 The electronic state of the initial guess is 1-A1.
 Keep R1 ints in memory in symmetry-blocked form, NReq=12144182.
 Requested convergence on RMS density matrix=1.00D-08 within 128 cycles.
 Requested convergence on MAX density matrix=1.00D-06.
 Requested convergence on             energy=1.00D-06.
 No special actions if energy rises.
 SCF Done:  E(RAPFD) =  -148.640971254     A.U. after   12 cycles
            NFock= 12  Conv=0.19D-08     -V/T= 2.0061

 **********************************************************************

            Population analysis using the SCF density.

 **********************************************************************

 Orbital symmetries:
       Occupied  (A1) (A1) (A1) (A1) (A1) (A1) (B2) (B1) (A1) (B2)
                 (B1)
       Virtual   (B2) (B1) (A1) (A1) (B2) (B1) (A1) (B2) (A1) (B1)
                 (A1) (B2) (A1) (B1) (B2) (A1) (A1) (A1) (B2) (A1)
                 (B1) (A2) (A1) (B2) (A1) (A1) (B2) (B1) (B1) (B2)
                 (A1) (A2) (B1) (A1) (A1) (B2) (A1) (A2) (A1) (B2)
                 (A1) (B1) (A1) (B2) (B1) (B1) (A2) (A1) (B2) (A1)
                 (B2) (A1) (A1) (B2) (B1) (A1) (A2) (B2) (B1) (A1)
                 (A1) (B1) (B2) (A1) (B2) (B1) (B2) (A1) (A2) (A1)
                 (A1) (A2) (A1) (B1) (B2) (B1) (B2) (A1) (A1) (A1)
                 (A1) (A1)
 The electronic state is 1-A1.
 Alpha  occ. eigenvalues --  -14.49947 -14.43505 -10.24785  -1.07949  -0.86294
 Alpha  occ. eigenvalues --   -0.59329  -0.52415  -0.46793  -0.46358  -0.39348
 Alpha  occ. eigenvalues --   -0.24397
 Alpha virt. eigenvalues --   -0.07797  -0.01412   0.01105   0.05003   0.05028
 Alpha virt. eigenvalues --    0.07909   0.10666   0.13831   0.14423   0.14871
 Alpha virt. eigenvalues --    0.18416   0.21436   0.22170   0.22389   0.23292
 Alpha virt. eigenvalues --    0.24672   0.29801   0.37744   0.50778   0.50998
 Alpha virt. eigenvalues --    0.54703   0.55983   0.63792   0.66792   0.75719
 Alpha virt. eigenvalues --    0.76455   0.77327   0.78143   0.78854   0.86147
 Alpha virt. eigenvalues --    0.86373   0.87248   0.87437   0.96534   0.98407
 Alpha virt. eigenvalues --    1.00457   1.14294   1.22884   1.24723   1.25451
 Alpha virt. eigenvalues --    1.28347   1.34640   1.39079   1.67314   1.68952
 Alpha virt. eigenvalues --    1.79107   1.88755   1.93226   2.08237   2.11650
 Alpha virt. eigenvalues --    2.33771   2.34227   2.55182   2.64683   2.80942
 Alpha virt. eigenvalues --    2.86036   3.21586   3.23867   3.38460   3.43829
 Alpha virt. eigenvalues --    3.54013   3.79905   3.83318   3.95559   3.95781
 Alpha virt. eigenvalues --    3.96281   4.12045   4.42738   4.66011   4.66668
 Alpha virt. eigenvalues --    4.71718   4.78792   4.80611   4.86662   4.92011
 Alpha virt. eigenvalues --    5.11460   5.23087   5.26197   5.81427  24.21233
 Alpha virt. eigenvalues --   35.42129  35.75591
     Molecular Orbital Coefficients:
                           1         2         3         4         5
                        (A1)--O   (A1)--O   (A1)--O   (A1)--O   (A1)--O
     Eigenvalues --   -14.49947 -14.43505 -10.24785  -1.07949  -0.86294
   1 1   N  1S          0.00257   0.55767   0.00001  -0.07163   0.06125
   2        2S          0.00229   0.46592  -0.00025  -0.11289   0.09745
   3        2PX         0.00000   0.00000   0.00000   0.00000   0.00000
   4        2PY         0.00000   0.00000   0.00000   0.00000   0.00000
   5        2PZ        -0.00059  -0.00167   0.00015  -0.08141   0.04750
   6        3S         -0.00009   0.01510   0.00281   0.30947  -0.27967
   7        3PX         0.00000   0.00000   0.00000   0.00000   0.00000
   8        3PY         0.00000   0.00000   0.00000   0.00000   0.00000
   9        3PZ         0.00245  -0.00222  -0.00247  -0.11762   0.07028
  10        4S         -0.00947  -0.01109  -0.00017   0.18755  -0.20640
  11        4PX         0.00000   0.00000   0.00000   0.00000   0.00000
  12        4PY         0.00000   0.00000   0.00000   0.00000   0.00000
  13        4PZ         0.00502   0.00316   0.00009  -0.04877   0.03670
  14        5S         -0.01668   0.00140  -0.00525   0.09429   0.10178
  15        5PX         0.00000   0.00000   0.00000   0.00000   0.00000
  16        5PY         0.00000   0.00000   0.00000   0.00000   0.00000
  17        5PZ         0.00341  -0.00141   0.00167  -0.01739  -0.03525
  18        6D 0       -0.00007   0.00063   0.00023   0.01235  -0.00690
  19        6D+1        0.00000   0.00000   0.00000   0.00000   0.00000
  20        6D-1        0.00000   0.00000   0.00000   0.00000   0.00000
  21        6D+2        0.00001  -0.00003   0.00002  -0.00059   0.00049
  22        6D-2        0.00000   0.00000   0.00000   0.00000   0.00000
  23        7D 0       -0.00222  -0.00006   0.00038   0.01808  -0.00643
  24        7D+1        0.00000   0.00000   0.00000   0.00000   0.00000
  25        7D-1        0.00000   0.00000   0.00000   0.00000   0.00000
  26        7D+2       -0.00007   0.00004  -0.00011  -0.00149   0.00127
  27        7D-2        0.00000   0.00000   0.00000   0.00000   0.00000
  28 2   N  1S          0.55764  -0.00263  -0.00009  -0.10119  -0.03459
  29        2S          0.46577  -0.00216  -0.00008  -0.16031  -0.05546
  30        2PX         0.00000   0.00000   0.00000   0.00000   0.00000
  31        2PY         0.00000   0.00000   0.00000   0.00000   0.00000
  32        2PZ         0.00001   0.00042  -0.00049   0.04699  -0.17352
  33        3S          0.01419   0.00180   0.00296   0.44516   0.15785
  34        3PX         0.00000   0.00000   0.00000   0.00000   0.00000
  35        3PY         0.00000   0.00000   0.00000   0.00000   0.00000
  36        3PZ         0.00033  -0.00106   0.00120   0.06704  -0.25225
  37        4S          0.00298  -0.00982  -0.01954   0.23786   0.12838
  38        4PX         0.00000   0.00000   0.00000   0.00000   0.00000
  39        4PY         0.00000   0.00000   0.00000   0.00000   0.00000
  40        4PZ         0.00564   0.00968   0.00895  -0.01203  -0.05654
  41        5S          0.01765  -0.00056   0.01082  -0.14831  -0.13440
  42        5PX         0.00000   0.00000   0.00000   0.00000   0.00000
  43        5PY         0.00000   0.00000   0.00000   0.00000   0.00000
  44        5PZ         0.00801   0.00318   0.00030  -0.04417  -0.01521
  45        6D 0        0.00050   0.00029   0.00046   0.01463   0.00163
  46        6D+1        0.00000   0.00000   0.00000   0.00000   0.00000
  47        6D-1        0.00000   0.00000   0.00000   0.00000   0.00000
  48        6D+2       -0.00008  -0.00001  -0.00009  -0.00021  -0.00005
  49        6D-2        0.00000   0.00000   0.00000   0.00000   0.00000
  50        7D 0        0.00258  -0.00494  -0.00687   0.01856   0.00078
  51        7D+1        0.00000   0.00000   0.00000   0.00000   0.00000
  52        7D-1        0.00000   0.00000   0.00000   0.00000   0.00000
  53        7D+2        0.00028   0.00004   0.00051  -0.00275  -0.00036
  54        7D-2        0.00000   0.00000   0.00000   0.00000   0.00000
  55 3   C  1S         -0.00001   0.00005   0.56324  -0.02980  -0.08163
  56        2S          0.00014  -0.00028   0.46293  -0.04570  -0.12702
  57        2PX         0.00000   0.00000   0.00000   0.00000   0.00000
  58        2PY         0.00000   0.00000   0.00000   0.00000   0.00000
  59        2PZ         0.00044  -0.00021   0.00079   0.03809   0.07050
  60        3S         -0.00066   0.00320   0.02176   0.10793   0.33308
  61        3PX         0.00000   0.00000   0.00000   0.00000   0.00000
  62        3PY         0.00000   0.00000   0.00000   0.00000   0.00000
  63        3PZ        -0.00290   0.00397   0.00429   0.04851   0.10086
  64        4S          0.00413   0.01180   0.00812   0.01487   0.17260
  65        4PX         0.00000   0.00000   0.00000   0.00000   0.00000
  66        4PY         0.00000   0.00000   0.00000   0.00000   0.00000
  67        4PZ         0.00005   0.00459   0.00403   0.00372   0.02745
  68        5S         -0.00146  -0.00089  -0.00472   0.03477   0.02188
  69        5PX         0.00000   0.00000   0.00000   0.00000   0.00000
  70        5PY         0.00000   0.00000   0.00000   0.00000   0.00000
  71        5PZ        -0.00103  -0.00124  -0.00125   0.01777   0.00274
  72        6D 0       -0.00055   0.00037   0.00112   0.00821   0.01474
  73        6D+1        0.00000   0.00000   0.00000   0.00000   0.00000
  74        6D-1        0.00000   0.00000   0.00000   0.00000   0.00000
  75        6D+2       -0.00007   0.00007  -0.00072  -0.00089  -0.00337
  76        6D-2        0.00000   0.00000   0.00000   0.00000   0.00000
  77        7D 0       -0.00175   0.00089   0.00111   0.00938   0.01189
  78        7D+1        0.00000   0.00000   0.00000   0.00000   0.00000
  79        7D-1        0.00000   0.00000   0.00000   0.00000   0.00000
  80        7D+2       -0.00108  -0.00017  -0.00207   0.00257  -0.00138
  81        7D-2        0.00000   0.00000   0.00000   0.00000   0.00000
  82 4   H  1S         -0.00008   0.00003   0.00024   0.00923   0.04048
  83        2S         -0.00199  -0.00024  -0.00488   0.01456   0.04791
  84        3S          0.00097   0.00036   0.00196  -0.00553  -0.00456
  85        4PX         0.00000   0.00000   0.00000   0.00000   0.00000
  86        4PY         0.00031  -0.00020   0.00161  -0.00167  -0.00724
  87        4PZ        -0.00052  -0.00002  -0.00128   0.00265   0.00594
  88 5   H  1S         -0.00008   0.00003   0.00024   0.00923   0.04048
  89        2S         -0.00199  -0.00024  -0.00488   0.01456   0.04791
  90        3S          0.00097   0.00036   0.00196  -0.00553  -0.00456
  91        4PX         0.00000   0.00000   0.00000   0.00000   0.00000
  92        4PY        -0.00031   0.00020  -0.00161   0.00167   0.00724
  93        4PZ        -0.00052  -0.00002  -0.00128   0.00265   0.00594
                           6         7         8         9        10
                        (A1)--O   (B2)--O   (B1)--O   (A1)--O   (B2)--O
     Eigenvalues --    -0.59329  -0.52415  -0.46793  -0.46358  -0.39348
   1 1   N  1S         -0.03657   0.00000   0.00000  -0.07461   0.00000
   2        2S         -0.05886   0.00000   0.00000  -0.12075   0.00000
   3        2PX         0.00000   0.00000   0.14108   0.00000   0.00000
   4        2PY         0.00000   0.07448   0.00000   0.00000   0.16238
   5        2PZ         0.01921   0.00000   0.00000   0.19884   0.00000
   6        3S          0.17256   0.00000   0.00000   0.34894   0.00000
   7        3PX         0.00000   0.00000   0.21809   0.00000   0.00000
   8        3PY         0.00000   0.11716   0.00000   0.00000   0.24737
   9        3PZ         0.02553   0.00000   0.00000   0.28340   0.00000
  10        4S          0.19180   0.00000   0.00000   0.50414   0.00000
  11        4PX         0.00000   0.00000   0.15043   0.00000   0.00000
  12        4PY         0.00000   0.07555   0.00000   0.00000   0.18782
  13        4PZ         0.00358   0.00000   0.00000   0.13996   0.00000
  14        5S         -0.21501   0.00000   0.00000  -0.07256   0.00000
  15        5PX         0.00000   0.00000   0.01217   0.00000   0.00000
  16        5PY         0.00000   0.00090   0.00000   0.00000   0.00594
  17        5PZ         0.05933   0.00000   0.00000   0.04686   0.00000
  18        6D 0       -0.00094   0.00000   0.00000  -0.01440   0.00000
  19        6D+1        0.00000   0.00000  -0.01168   0.00000   0.00000
  20        6D-1        0.00000  -0.00736   0.00000   0.00000  -0.01100
  21        6D+2       -0.00035   0.00000   0.00000  -0.00076   0.00000
  22        6D-2        0.00000   0.00000   0.00000   0.00000   0.00000
  23        7D 0       -0.00296   0.00000   0.00000  -0.01446   0.00000
  24        7D+1        0.00000   0.00000  -0.03491   0.00000   0.00000
  25        7D-1        0.00000  -0.02207   0.00000   0.00000  -0.02775
  26        7D+2       -0.00083   0.00000   0.00000  -0.00245   0.00000
  27        7D-2        0.00000   0.00000   0.00000   0.00000   0.00000
  28 2   N  1S          0.04480   0.00000   0.00000   0.02668   0.00000
  29        2S          0.07299   0.00000   0.00000   0.04363   0.00000
  30        2PX         0.00000   0.00000   0.22372   0.00000   0.00000
  31        2PY         0.00000   0.15767   0.00000   0.00000   0.16131
  32        2PZ         0.06672   0.00000   0.00000  -0.13414   0.00000
  33        3S         -0.22078   0.00000   0.00000  -0.13554   0.00000
  34        3PX         0.00000   0.00000   0.34893   0.00000   0.00000
  35        3PY         0.00000   0.24362   0.00000   0.00000   0.24997
  36        3PZ         0.09913   0.00000   0.00000  -0.20322   0.00000
  37        4S         -0.21132   0.00000   0.00000  -0.17032   0.00000
  38        4PX         0.00000   0.00000   0.23143   0.00000   0.00000
  39        4PY         0.00000   0.15173   0.00000   0.00000   0.18747
  40        4PZ         0.01647   0.00000   0.00000  -0.13729   0.00000
  41        5S          0.19232   0.00000   0.00000   0.12001   0.00000
  42        5PX         0.00000   0.00000  -0.00248   0.00000   0.00000
  43        5PY         0.00000  -0.00106   0.00000   0.00000   0.04379
  44        5PZ         0.09489   0.00000   0.00000   0.04503   0.00000
  45        6D 0       -0.00205   0.00000   0.00000  -0.00101   0.00000
  46        6D+1        0.00000   0.00000   0.00264   0.00000   0.00000
  47        6D-1        0.00000  -0.00224   0.00000   0.00000   0.01006
  48        6D+2        0.00000   0.00000   0.00000   0.00004   0.00000
  49        6D-2        0.00000   0.00000   0.00000   0.00000   0.00000
  50        7D 0        0.00309   0.00000   0.00000   0.00007   0.00000
  51        7D+1        0.00000   0.00000   0.00175   0.00000   0.00000
  52        7D-1        0.00000  -0.00166   0.00000   0.00000   0.04097
  53        7D+2       -0.00020   0.00000   0.00000   0.00166   0.00000
  54        7D-2        0.00000   0.00000   0.00000   0.00000   0.00000
  55 3   C  1S         -0.06419   0.00000   0.00000  -0.00341   0.00000
  56        2S         -0.10151   0.00000   0.00000  -0.00545   0.00000
  57        2PX         0.00000   0.00000   0.09104   0.00000   0.00000
  58        2PY         0.00000   0.17017   0.00000   0.00000  -0.12361
  59        2PZ        -0.15137   0.00000   0.00000   0.07652   0.00000
  60        3S          0.26304   0.00000   0.00000   0.02063   0.00000
  61        3PX         0.00000   0.00000   0.14551   0.00000   0.00000
  62        3PY         0.00000   0.23686   0.00000   0.00000  -0.15968
  63        3PZ        -0.20512   0.00000   0.00000   0.10461   0.00000
  64        4S          0.24458   0.00000   0.00000  -0.02351   0.00000
  65        4PX         0.00000   0.00000   0.09055   0.00000   0.00000
  66        4PY         0.00000   0.11018   0.00000   0.00000  -0.12923
  67        4PZ        -0.08839   0.00000   0.00000   0.03991   0.00000
  68        5S          0.02655   0.00000   0.00000  -0.00395   0.00000
  69        5PX         0.00000   0.00000   0.01211   0.00000   0.00000
  70        5PY         0.00000   0.01825   0.00000   0.00000  -0.01732
  71        5PZ        -0.00537   0.00000   0.00000   0.00097   0.00000
  72        6D 0       -0.01203   0.00000   0.00000   0.00672   0.00000
  73        6D+1        0.00000   0.00000   0.01309   0.00000   0.00000
  74        6D-1        0.00000   0.00090   0.00000   0.00000   0.01561
  75        6D+2       -0.00902   0.00000   0.00000   0.00199   0.00000
  76        6D-2        0.00000   0.00000   0.00000   0.00000   0.00000
  77        7D 0       -0.00564   0.00000   0.00000   0.00002   0.00000
  78        7D+1        0.00000   0.00000   0.02467   0.00000   0.00000
  79        7D-1        0.00000   0.03615   0.00000   0.00000   0.03427
  80        7D+2       -0.00311   0.00000   0.00000  -0.00155   0.00000
  81        7D-2        0.00000   0.00000   0.00000   0.00000   0.00000
  82 4   H  1S          0.11903   0.10667   0.00000  -0.02877  -0.10620
  83        2S          0.16148   0.17512   0.00000  -0.04624  -0.15601
  84        3S          0.02144   0.02235   0.00000  -0.00818  -0.06392
  85        4PX         0.00000   0.00000   0.00688   0.00000   0.00000
  86        4PY        -0.01978  -0.01353   0.00000   0.00492   0.00768
  87        4PZ         0.00544   0.00972   0.00000  -0.00014  -0.01218
  88 5   H  1S          0.11903  -0.10667   0.00000  -0.02877   0.10620
  89        2S          0.16148  -0.17512   0.00000  -0.04624   0.15601
  90        3S          0.02144  -0.02235   0.00000  -0.00818   0.06392
  91        4PX         0.00000   0.00000   0.00688   0.00000   0.00000
  92        4PY         0.01978  -0.01353   0.00000  -0.00492   0.00768
  93        4PZ         0.00544  -0.00972   0.00000  -0.00014   0.01218
                          11        12        13        14        15
                        (B1)--O   (B2)--V   (B1)--V   (A1)--V   (A1)--V
     Eigenvalues --    -0.24397  -0.07797  -0.01412   0.01105   0.05003
   1 1   N  1S          0.00000   0.00000   0.00000  -0.01578   0.01631
   2        2S          0.00000   0.00000   0.00000  -0.02564   0.02757
   3        2PX        -0.20900   0.00000   0.15003   0.00000   0.00000
   4        2PY         0.00000   0.22975   0.00000   0.00000   0.00000
   5        2PZ         0.00000   0.00000   0.00000  -0.01925  -0.01720
   6        3S          0.00000   0.00000   0.00000   0.07458  -0.10334
   7        3PX        -0.30913   0.00000   0.22522   0.00000   0.00000
   8        3PY         0.00000   0.34720   0.00000   0.00000   0.00000
   9        3PZ         0.00000   0.00000   0.00000  -0.02290  -0.01089
  10        4S          0.00000   0.00000   0.00000   0.36626  -0.08381
  11        4PX        -0.29317   0.00000   0.29335   0.00000   0.00000
  12        4PY         0.00000   0.39844   0.00000   0.00000   0.00000
  13        4PZ         0.00000   0.00000   0.00000  -0.13937  -0.12082
  14        5S          0.00000   0.00000   0.00000   6.10698  -0.29418
  15        5PX        -0.06177   0.00000   0.34103   0.00000   0.00000
  16        5PY         0.00000   0.25153   0.00000   0.00000   0.00000
  17        5PZ         0.00000   0.00000   0.00000  -1.46831   0.18923
  18        6D 0        0.00000   0.00000   0.00000   0.00041  -0.00171
  19        6D+1        0.00512   0.00000   0.00662   0.00000   0.00000
  20        6D-1        0.00000   0.00286   0.00000   0.00000   0.00000
  21        6D+2        0.00000   0.00000   0.00000  -0.00022   0.00034
  22        6D-2        0.00000   0.00000   0.00000   0.00000   0.00000
  23        7D 0        0.00000   0.00000   0.00000   0.00519   0.00140
  24        7D+1        0.00512   0.00000   0.01829   0.00000   0.00000
  25        7D-1        0.00000   0.01206   0.00000   0.00000   0.00000
  26        7D+2        0.00000   0.00000   0.00000   0.00065  -0.00147
  27        7D-2        0.00000   0.00000   0.00000   0.00000   0.00000
  28 2   N  1S          0.00000   0.00000   0.00000   0.00276   0.01461
  29        2S          0.00000   0.00000   0.00000   0.00454   0.02523
  30        2PX         0.03602   0.00000  -0.21060   0.00000   0.00000
  31        2PY         0.00000  -0.19885   0.00000   0.00000   0.00000
  32        2PZ         0.00000   0.00000   0.00000   0.00397   0.02995
  33        3S          0.00000   0.00000   0.00000  -0.02083  -0.10396
  34        3PX         0.05750   0.00000  -0.32725   0.00000   0.00000
  35        3PY         0.00000  -0.31033   0.00000   0.00000   0.00000
  36        3PZ         0.00000   0.00000   0.00000  -0.00036   0.03230
  37        4S          0.00000   0.00000   0.00000   0.37024  -0.09687
  38        4PX         0.05412   0.00000  -0.38498   0.00000   0.00000
  39        4PY         0.00000  -0.33335   0.00000   0.00000   0.00000
  40        4PZ         0.00000   0.00000   0.00000  -0.50285   0.02903
  41        5S          0.00000   0.00000   0.00000  -2.84867  -1.89912
  42        5PX        -0.01975   0.00000  -0.51883   0.00000   0.00000
  43        5PY         0.00000  -0.25544   0.00000   0.00000   0.00000
  44        5PZ         0.00000   0.00000   0.00000  -3.57996   0.32655
  45        6D 0        0.00000   0.00000   0.00000   0.00556  -0.00411
  46        6D+1       -0.01656   0.00000   0.00168   0.00000   0.00000
  47        6D-1        0.00000   0.01190   0.00000   0.00000   0.00000
  48        6D+2        0.00000   0.00000   0.00000   0.00014  -0.00052
  49        6D-2        0.00000   0.00000   0.00000   0.00000   0.00000
  50        7D 0        0.00000   0.00000   0.00000   0.06392  -0.01398
  51        7D+1       -0.06937   0.00000   0.00488   0.00000   0.00000
  52        7D-1        0.00000   0.04398   0.00000   0.00000   0.00000
  53        7D+2        0.00000   0.00000   0.00000   0.00218   0.00127
  54        7D-2        0.00000   0.00000   0.00000   0.00000   0.00000
  55 3   C  1S          0.00000   0.00000   0.00000  -0.03994  -0.00836
  56        2S          0.00000   0.00000   0.00000  -0.06693  -0.01358
  57        2PX         0.19158   0.00000   0.13191   0.00000   0.00000
  58        2PY         0.00000  -0.00086   0.00000   0.00000   0.00000
  59        2PZ         0.00000   0.00000   0.00000  -0.01677  -0.02602
  60        3S          0.00000   0.00000   0.00000   0.25419   0.02106
  61        3PX         0.29115   0.00000   0.20512   0.00000   0.00000
  62        3PY         0.00000  -0.00665   0.00000   0.00000   0.00000
  63        3PZ         0.00000   0.00000   0.00000  -0.08718  -0.06386
  64        4S          0.00000   0.00000   0.00000  -0.74377   0.28963
  65        4PX         0.31141   0.00000   0.37496   0.00000   0.00000
  66        4PY         0.00000  -0.04977   0.00000   0.00000   0.00000
  67        4PZ         0.00000   0.00000   0.00000  -0.66977   0.05377
  68        5S          0.00000   0.00000   0.00000  -3.47131   1.56483
  69        5PX         0.06659   0.00000   0.55387   0.00000   0.00000
  70        5PY         0.00000   0.10013   0.00000   0.00000   0.00000
  71        5PZ         0.00000   0.00000   0.00000  -0.36782   1.97361
  72        6D 0        0.00000   0.00000   0.00000   0.00208  -0.00923
  73        6D+1        0.00566   0.00000  -0.01398   0.00000   0.00000
  74        6D-1        0.00000  -0.02113   0.00000   0.00000   0.00000
  75        6D+2        0.00000   0.00000   0.00000   0.00067  -0.00202
  76        6D-2        0.00000   0.00000   0.00000   0.00000   0.00000
  77        7D 0        0.00000   0.00000   0.00000  -0.07786  -0.04295
  78        7D+1       -0.00131   0.00000  -0.04913   0.00000   0.00000
  79        7D-1        0.00000  -0.04472   0.00000   0.00000   0.00000
  80        7D+2        0.00000   0.00000   0.00000  -0.00281  -0.02955
  81        7D-2        0.00000   0.00000   0.00000   0.00000   0.00000
  82 4   H  1S          0.00000   0.05816   0.00000   0.00254   0.01087
  83        2S          0.00000   0.12067   0.00000  -0.02319  -0.06947
  84        3S          0.00000   0.19561   0.00000  -0.23979   0.24552
  85        4PX         0.01794   0.00000   0.02102   0.00000   0.00000
  86        4PY         0.00000  -0.00123   0.00000  -0.01673   0.00473
  87        4PZ         0.00000  -0.00211   0.00000   0.00759   0.00671
  88 5   H  1S          0.00000  -0.05816   0.00000   0.00254   0.01087
  89        2S          0.00000  -0.12067   0.00000  -0.02319  -0.06947
  90        3S          0.00000  -0.19561   0.00000  -0.23979   0.24552
  91        4PX         0.01794   0.00000   0.02102   0.00000   0.00000
  92        4PY         0.00000  -0.00123   0.00000   0.01673  -0.00473
  93        4PZ         0.00000   0.00211   0.00000   0.00759   0.00671
                          16        17        18        19        20
                        (B2)--V   (B1)--V   (A1)--V   (B2)--V   (A1)--V
     Eigenvalues --     0.05028   0.07909   0.10666   0.13831   0.14423
   1 1   N  1S          0.00000   0.00000   0.03216   0.00000   0.00050
   2        2S          0.00000   0.00000   0.05313   0.00000   0.00072
   3        2PX         0.00000  -0.08290   0.00000   0.00000   0.00000
   4        2PY        -0.05298   0.00000   0.00000  -0.08593   0.00000
   5        2PZ         0.00000   0.00000   0.00167   0.00000  -0.03376
   6        3S          0.00000   0.00000  -0.18818   0.00000  -0.00325
   7        3PX         0.00000  -0.11902   0.00000   0.00000   0.00000
   8        3PY        -0.08357   0.00000   0.00000  -0.08890   0.00000
   9        3PZ         0.00000   0.00000  -0.01258   0.00000  -0.03755
  10        4S          0.00000   0.00000   0.28438   0.00000   0.19475
  11        4PX         0.00000  -0.22555   0.00000   0.00000   0.00000
  12        4PY        -0.10809   0.00000   0.00000  -0.34642   0.00000
  13        4PZ         0.00000   0.00000  -0.49008   0.00000  -0.27927
  14        5S          0.00000   0.00000 -11.42096   0.00000   8.33750
  15        5PX         0.00000   0.31052   0.00000   0.00000   0.00000
  16        5PY         0.28557   0.00000   0.00000   1.07461   0.00000
  17        5PZ         0.00000   0.00000   4.45175   0.00000  -1.89953
  18        6D 0        0.00000   0.00000   0.00100   0.00000  -0.00191
  19        6D+1        0.00000  -0.00284   0.00000   0.00000   0.00000
  20        6D-1        0.00022   0.00000   0.00000   0.00635   0.00000
  21        6D+2        0.00000   0.00000   0.00049   0.00000   0.00020
  22        6D-2        0.00000   0.00000   0.00000   0.00000   0.00000
  23        7D 0        0.00000   0.00000   0.08313   0.00000   0.00524
  24        7D+1        0.00000   0.00331   0.00000   0.00000   0.00000
  25        7D-1        0.00255   0.00000   0.00000   0.02735   0.00000
  26        7D+2        0.00000   0.00000  -0.00001   0.00000   0.00724
  27        7D-2        0.00000   0.00000   0.00000   0.00000   0.00000
  28 2   N  1S          0.00000   0.00000  -0.02641   0.00000   0.01403
  29        2S          0.00000   0.00000  -0.04461   0.00000   0.02441
  30        2PX         0.00000   0.07094   0.00000   0.00000   0.00000
  31        2PY         0.01849   0.00000   0.00000  -0.05850   0.00000
  32        2PZ         0.00000   0.00000   0.00922   0.00000   0.01356
  33        3S          0.00000   0.00000   0.17268   0.00000  -0.10175
  34        3PX         0.00000   0.08748   0.00000   0.00000   0.00000
  35        3PY         0.01307   0.00000   0.00000  -0.06748   0.00000
  36        3PZ         0.00000   0.00000   0.00182   0.00000   0.02398
  37        4S          0.00000   0.00000  -0.20719   0.00000   0.24818
  38        4PX         0.00000   0.30163   0.00000   0.00000   0.00000
  39        4PY         0.11636   0.00000   0.00000  -0.24246   0.00000
  40        4PZ         0.00000   0.00000  -0.64208   0.00000  -0.50064
  41        5S          0.00000   0.00000  13.10693   0.00000  -5.90432
  42        5PX         0.00000  -0.66268   0.00000   0.00000   0.00000
  43        5PY        -0.83592   0.00000   0.00000   0.33155   0.00000
  44        5PZ         0.00000   0.00000   4.28711   0.00000  -4.17565
  45        6D 0        0.00000   0.00000  -0.00364   0.00000   0.00291
  46        6D+1        0.00000   0.00242   0.00000   0.00000   0.00000
  47        6D-1       -0.00028   0.00000   0.00000  -0.01002   0.00000
  48        6D+2        0.00000   0.00000  -0.00051   0.00000   0.00256
  49        6D-2        0.00000   0.00000   0.00000   0.00000   0.00000
  50        7D 0        0.00000   0.00000  -0.08066   0.00000   0.02192
  51        7D+1        0.00000   0.00982   0.00000   0.00000   0.00000
  52        7D-1        0.00448   0.00000   0.00000   0.00911   0.00000
  53        7D+2        0.00000   0.00000  -0.00004   0.00000   0.02781
  54        7D-2        0.00000   0.00000   0.00000   0.00000   0.00000
  55 3   C  1S          0.00000   0.00000   0.00625   0.00000  -0.04497
  56        2S          0.00000   0.00000   0.01014   0.00000  -0.07219
  57        2PX         0.00000  -0.14515   0.00000   0.00000   0.00000
  58        2PY        -0.07640   0.00000   0.00000   0.06263   0.00000
  59        2PZ         0.00000   0.00000  -0.04793   0.00000  -0.05149
  60        3S          0.00000   0.00000  -0.03471   0.00000   0.17089
  61        3PX         0.00000  -0.20491   0.00000   0.00000   0.00000
  62        3PY        -0.16051   0.00000   0.00000   0.07346   0.00000
  63        3PZ         0.00000   0.00000  -0.06765   0.00000  -0.07696
  64        4S          0.00000   0.00000  -0.30339   0.00000   0.80155
  65        4PX         0.00000  -0.50444   0.00000   0.00000   0.00000
  66        4PY        -0.01148   0.00000   0.00000   0.45213   0.00000
  67        4PZ         0.00000   0.00000  -0.53380   0.00000  -1.18026
  68        5S          0.00000   0.00000  -1.05824   0.00000   0.94176
  69        5PX         0.00000   1.42810   0.00000   0.00000   0.00000
  70        5PY         1.82496   0.00000   0.00000  -0.37037   0.00000
  71        5PZ         0.00000   0.00000  -0.78786   0.00000  -0.72443
  72        6D 0        0.00000   0.00000   0.01225   0.00000   0.00337
  73        6D+1        0.00000   0.00280   0.00000   0.00000   0.00000
  74        6D-1        0.00349   0.00000   0.00000   0.00443   0.00000
  75        6D+2        0.00000   0.00000  -0.00211   0.00000   0.01901
  76        6D-2        0.00000   0.00000   0.00000   0.00000   0.00000
  77        7D 0        0.00000   0.00000   0.01083   0.00000  -0.08084
  78        7D+1        0.00000  -0.00006   0.00000   0.00000   0.00000
  79        7D-1        0.00890   0.00000   0.00000   0.05074   0.00000
  80        7D+2        0.00000   0.00000  -0.00514   0.00000   0.04951
  81        7D-2        0.00000   0.00000   0.00000   0.00000   0.00000
  82 4   H  1S         -0.03059   0.00000   0.01014  -0.01128  -0.08451
  83        2S          0.02618   0.00000  -0.03425  -0.01873  -0.12621
  84        3S         -0.53065   0.00000   0.24157  -0.64751  -2.64366
  85        4PX         0.00000  -0.00654   0.00000   0.00000   0.00000
  86        4PY         0.01027   0.00000  -0.00389  -0.01214  -0.02188
  87        4PZ        -0.00545   0.00000  -0.01051   0.01111  -0.00140
  88 5   H  1S          0.03059   0.00000   0.01014   0.01128  -0.08451
  89        2S         -0.02618   0.00000  -0.03425   0.01873  -0.12621
  90        3S          0.53065   0.00000   0.24157   0.64751  -2.64366
  91        4PX         0.00000  -0.00654   0.00000   0.00000   0.00000
  92        4PY         0.01027   0.00000   0.00389  -0.01214   0.02188
  93        4PZ         0.00545   0.00000  -0.01051  -0.01111  -0.00140
                          21        22        23        24        25
                        (B1)--V   (A1)--V   (B2)--V   (A1)--V   (B1)--V
     Eigenvalues --     0.14871   0.18416   0.21436   0.22170   0.22389
   1 1   N  1S          0.00000   0.03635   0.00000   0.00118   0.00000
   2        2S          0.00000   0.06015   0.00000   0.00397   0.00000
   3        2PX        -0.10797   0.00000   0.00000   0.00000   0.02491
   4        2PY         0.00000   0.00000   0.05076   0.00000   0.00000
   5        2PZ         0.00000   0.10873   0.00000   0.02688   0.00000
   6        3S          0.00000  -0.17371   0.00000  -0.07372   0.00000
   7        3PX        -0.11237   0.00000   0.00000   0.00000   0.01762
   8        3PY         0.00000   0.00000   0.04828   0.00000   0.00000
   9        3PZ         0.00000   0.19654   0.00000  -0.00394   0.00000
  10        4S          0.00000  -0.71878   0.00000   1.32242   0.00000
  11        4PX        -0.44389   0.00000   0.00000   0.00000   0.19869
  12        4PY         0.00000   0.00000   0.28999   0.00000   0.00000
  13        4PZ         0.00000   0.17337   0.00000  -0.57748   0.00000
  14        5S          0.00000  14.07048   0.00000  11.04778   0.00000
  15        5PX         1.27262   0.00000   0.00000   0.00000  -2.24691
  16        5PY         0.00000   0.00000  -2.38845   0.00000   0.00000
  17        5PZ         0.00000  -4.31103   0.00000  -1.07766   0.00000
  18        6D 0        0.00000  -0.00967   0.00000   0.00072   0.00000
  19        6D+1        0.00480   0.00000   0.00000   0.00000   0.00153
  20        6D-1        0.00000   0.00000   0.00197   0.00000   0.00000
  21        6D+2        0.00000   0.00060   0.00000  -0.00021   0.00000
  22        6D-2        0.00000   0.00000   0.00000   0.00000   0.00000
  23        7D 0        0.00000  -0.02507   0.00000   0.08392   0.00000
  24        7D+1        0.02925   0.00000   0.00000   0.00000  -0.02375
  25        7D-1        0.00000   0.00000  -0.02030   0.00000   0.00000
  26        7D+2        0.00000  -0.00011   0.00000   0.00626   0.00000
  27        7D-2        0.00000   0.00000   0.00000   0.00000   0.00000
  28 2   N  1S          0.00000  -0.02460   0.00000   0.01115   0.00000
  29        2S          0.00000  -0.04078   0.00000   0.01873   0.00000
  30        2PX        -0.02861   0.00000   0.00000   0.00000  -0.09777
  31        2PY         0.00000   0.00000  -0.10826   0.00000   0.00000
  32        2PZ         0.00000  -0.02289   0.00000   0.06172   0.00000
  33        3S          0.00000   0.07687   0.00000  -0.05247   0.00000
  34        3PX        -0.02362   0.00000   0.00000   0.00000  -0.10454
  35        3PY         0.00000   0.00000  -0.13141   0.00000   0.00000
  36        3PZ         0.00000  -0.01244   0.00000   0.05780   0.00000
  37        4S          0.00000   1.30232   0.00000  -0.28126   0.00000
  38        4PX        -0.11514   0.00000   0.00000   0.00000  -0.50609
  39        4PY         0.00000   0.00000  -0.56427   0.00000   0.00000
  40        4PZ         0.00000  -0.75381   0.00000  -1.19857   0.00000
  41        5S          0.00000  -6.68272   0.00000  -0.83940   0.00000
  42        5PX         0.31997   0.00000   0.00000   0.00000   3.90906
  43        5PY         0.00000   0.00000   3.70721   0.00000   0.00000
  44        5PZ         0.00000  -6.22190   0.00000  -9.52076   0.00000
  45        6D 0        0.00000  -0.03277   0.00000  -0.00644   0.00000
  46        6D+1       -0.00830   0.00000   0.00000   0.00000   0.00358
  47        6D-1        0.00000   0.00000   0.00176   0.00000   0.00000
  48        6D+2        0.00000   0.00025   0.00000   0.00219   0.00000
  49        6D-2        0.00000   0.00000   0.00000   0.00000   0.00000
  50        7D 0        0.00000   0.01804   0.00000  -0.05503   0.00000
  51        7D+1        0.01297   0.00000   0.00000   0.00000  -0.00255
  52        7D-1        0.00000   0.00000   0.00952   0.00000   0.00000
  53        7D+2        0.00000   0.00175   0.00000   0.00260   0.00000
  54        7D-2        0.00000   0.00000   0.00000   0.00000   0.00000
  55 3   C  1S          0.00000   0.03912   0.00000   0.02405   0.00000
  56        2S          0.00000   0.06652   0.00000   0.03693   0.00000
  57        2PX         0.01415   0.00000   0.00000   0.00000  -0.04475
  58        2PY         0.00000   0.00000  -0.00343   0.00000   0.00000
  59        2PZ         0.00000  -0.10870   0.00000   0.02660   0.00000
  60        3S          0.00000  -0.16729   0.00000   0.01766   0.00000
  61        3PX         0.03067   0.00000   0.00000   0.00000  -0.02898
  62        3PY         0.00000   0.00000  -0.03378   0.00000   0.00000
  63        3PZ         0.00000  -0.27020   0.00000   0.02221   0.00000
  64        4S          0.00000  -2.49638   0.00000  -3.72957   0.00000
  65        4PX         0.06143   0.00000   0.00000   0.00000  -0.31659
  66        4PY         0.00000   0.00000  -0.13161   0.00000   0.00000
  67        4PZ         0.00000  -1.42904   0.00000  -0.95162   0.00000
  68        5S          0.00000  -4.75527   0.00000  -5.70157   0.00000
  69        5PX        -0.78448   0.00000   0.00000   0.00000  -1.40720
  70        5PY         0.00000   0.00000  -0.97658   0.00000   0.00000
  71        5PZ         0.00000  -1.49323   0.00000  -1.53360   0.00000
  72        6D 0        0.00000   0.00572   0.00000  -0.01103   0.00000
  73        6D+1        0.00153   0.00000   0.00000   0.00000  -0.00446
  74        6D-1        0.00000   0.00000  -0.00222   0.00000   0.00000
  75        6D+2        0.00000   0.00417   0.00000   0.00858   0.00000
  76        6D-2        0.00000   0.00000   0.00000   0.00000   0.00000
  77        7D 0        0.00000  -0.08580   0.00000  -0.15951   0.00000
  78        7D+1        0.03978   0.00000   0.00000   0.00000   0.01944
  79        7D-1        0.00000   0.00000   0.10939   0.00000   0.00000
  80        7D+2        0.00000   0.00520   0.00000   0.07257   0.00000
  81        7D-2        0.00000   0.00000   0.00000   0.00000   0.00000
  82 4   H  1S          0.00000   0.00056  -0.01419  -0.02221   0.00000
  83        2S          0.00000   0.00499   0.13420   0.18797   0.00000
  84        3S          0.00000  -0.40663  -0.52790  -1.16925   0.00000
  85        4PX        -0.00249   0.00000   0.00000   0.00000   0.00146
  86        4PY         0.00000  -0.00821  -0.01356  -0.00277   0.00000
  87        4PZ         0.00000  -0.01473   0.01651   0.02240   0.00000
  88 5   H  1S          0.00000   0.00056   0.01419  -0.02221   0.00000
  89        2S          0.00000   0.00499  -0.13420   0.18797   0.00000
  90        3S          0.00000  -0.40663   0.52790  -1.16925   0.00000
  91        4PX        -0.00249   0.00000   0.00000   0.00000   0.00146
  92        4PY         0.00000   0.00821  -0.01356   0.00277   0.00000
  93        4PZ         0.00000  -0.01473  -0.01651   0.02240   0.00000
                          26        27        28        29        30
                        (B2)--V   (A1)--V   (A1)--V   (A1)--V   (B2)--V
     Eigenvalues --     0.23292   0.24672   0.29801   0.37744   0.50778
   1 1   N  1S          0.00000  -0.00800   0.00113  -0.03368   0.00000
   2        2S          0.00000  -0.01647   0.00246  -0.05385   0.00000
   3        2PX         0.00000   0.00000   0.00000   0.00000   0.00000
   4        2PY        -0.07365   0.00000   0.00000   0.00000   0.03982
   5        2PZ         0.00000  -0.14001  -0.10510  -0.07784   0.00000
   6        3S          0.00000   0.08389  -0.01540   0.08981   0.00000
   7        3PX         0.00000   0.00000   0.00000   0.00000   0.00000
   8        3PY        -0.09509   0.00000   0.00000   0.00000   0.04632
   9        3PZ         0.00000  -0.26652  -0.04298  -0.15264   0.00000
  10        4S          0.00000   0.21248   0.14926   2.79369   0.00000
  11        4PX         0.00000   0.00000   0.00000   0.00000   0.00000
  12        4PY        -0.29828   0.00000   0.00000   0.00000   0.19236
  13        4PZ         0.00000  -0.79503  -0.84699  -1.30538   0.00000
  14        5S          0.00000  -0.70892  47.00516 -25.69034   0.00000
  15        5PX         0.00000   0.00000   0.00000   0.00000   0.00000
  16        5PY         0.04819   0.00000   0.00000   0.00000   0.57458
  17        5PZ         0.00000   0.04012 -12.08241   7.49174   0.00000
  18        6D 0        0.00000  -0.01119  -0.00596  -0.01810   0.00000
  19        6D+1        0.00000   0.00000   0.00000   0.00000   0.00000
  20        6D-1       -0.00326   0.00000   0.00000   0.00000   0.00832
  21        6D+2        0.00000  -0.00010   0.00015  -0.00004   0.00000
  22        6D-2        0.00000   0.00000   0.00000   0.00000   0.00000
  23        7D 0        0.00000   0.03763  -0.00632   0.02560   0.00000
  24        7D+1        0.00000   0.00000   0.00000   0.00000   0.00000
  25        7D-1        0.00584   0.00000   0.00000   0.00000   0.07907
  26        7D+2        0.00000  -0.00326   0.00463  -0.00548   0.00000
  27        7D-2        0.00000   0.00000   0.00000   0.00000   0.00000
  28 2   N  1S          0.00000   0.06734   0.00101   0.02918   0.00000
  29        2S          0.00000   0.11046   0.00441   0.05023   0.00000
  30        2PX         0.00000   0.00000   0.00000   0.00000   0.00000
  31        2PY         0.03841   0.00000   0.00000   0.00000  -0.10881
  32        2PZ         0.00000   0.00585  -0.02970  -0.11366   0.00000
  33        3S          0.00000  -0.25082  -0.12196  -0.20369   0.00000
  34        3PX         0.00000   0.00000   0.00000   0.00000   0.00000
  35        3PY         0.06396   0.00000   0.00000   0.00000  -0.19947
  36        3PZ         0.00000   0.01729  -0.06377  -0.22457   0.00000
  37        4S          0.00000  -3.18711   1.73401   1.01601   0.00000
  38        4PX         0.00000   0.00000   0.00000   0.00000   0.00000
  39        4PY         0.19223   0.00000   0.00000   0.00000  -0.21787
  40        4PZ         0.00000   0.03634  -1.50243  -3.42151   0.00000
  41        5S          0.00000   4.23954 -41.18880  27.59081   0.00000
  42        5PX         0.00000   0.00000   0.00000   0.00000   0.00000
  43        5PY         1.61293   0.00000   0.00000   0.00000  -1.04362
  44        5PZ         0.00000   1.27157 -19.59861   8.06650   0.00000
  45        6D 0        0.00000   0.01963   0.00943   0.01371   0.00000
  46        6D+1        0.00000   0.00000   0.00000   0.00000   0.00000
  47        6D-1        0.00617   0.00000   0.00000   0.00000  -0.01832
  48        6D+2        0.00000   0.00061   0.00065  -0.00112   0.00000
  49        6D-2        0.00000   0.00000   0.00000   0.00000   0.00000
  50        7D 0        0.00000  -0.07247   0.20557   0.09920   0.00000
  51        7D+1        0.00000   0.00000   0.00000   0.00000   0.00000
  52        7D-1        0.02637   0.00000   0.00000   0.00000  -0.08663
  53        7D+2        0.00000  -0.01528   0.01805   0.02627   0.00000
  54        7D-2        0.00000   0.00000   0.00000   0.00000   0.00000
  55 3   C  1S          0.00000  -0.03196   0.01038  -0.00094   0.00000
  56        2S          0.00000  -0.05704   0.01859  -0.00276   0.00000
  57        2PX         0.00000   0.00000   0.00000   0.00000   0.00000
  58        2PY        -0.18521   0.00000   0.00000   0.00000   0.07304
  59        2PZ         0.00000   0.11748   0.12075   0.09111   0.00000
  60        3S          0.00000   0.19466   0.01108   0.07696   0.00000
  61        3PX         0.00000   0.00000   0.00000   0.00000   0.00000
  62        3PY        -0.20553   0.00000   0.00000   0.00000   0.31774
  63        3PZ         0.00000   0.30523  -0.03385  -0.05602   0.00000
  64        4S          0.00000   1.01336  -3.78850  -4.21830   0.00000
  65        4PX         0.00000   0.00000   0.00000   0.00000   0.00000
  66        4PY        -1.61078   0.00000   0.00000   0.00000   1.64834
  67        4PZ         0.00000   1.39468  -1.25338  -3.85365   0.00000
  68        5S          0.00000  -2.68005  -2.95090  -1.48113   0.00000
  69        5PX         0.00000   0.00000   0.00000   0.00000   0.00000
  70        5PY        -2.52371   0.00000   0.00000   0.00000  -0.50831
  71        5PZ         0.00000  -1.81421   0.53651   0.10037   0.00000
  72        6D 0        0.00000  -0.01548   0.00268   0.03534   0.00000
  73        6D+1        0.00000   0.00000   0.00000   0.00000   0.00000
  74        6D-1       -0.01220   0.00000   0.00000   0.00000   0.03094
  75        6D+2        0.00000  -0.00381   0.00538   0.00917   0.00000
  76        6D-2        0.00000   0.00000   0.00000   0.00000   0.00000
  77        7D 0        0.00000   0.06600  -0.22485  -0.37811   0.00000
  78        7D+1        0.00000   0.00000   0.00000   0.00000   0.00000
  79        7D-1       -0.00173   0.00000   0.00000   0.00000  -0.06977
  80        7D+2        0.00000   0.00318   0.04013  -0.00736   0.00000
  81        7D-2        0.00000   0.00000   0.00000   0.00000   0.00000
  82 4   H  1S          0.02826  -0.00078  -0.01030  -0.03570  -0.09808
  83        2S          0.04676   0.08546   0.02108  -0.51436  -1.54594
  84        3S          2.99056   0.47287  -0.73934   0.68843   1.24071
  85        4PX         0.00000   0.00000   0.00000   0.00000   0.00000
  86        4PY         0.02142   0.00447   0.00678   0.00397   0.07295
  87        4PZ        -0.02081   0.03046  -0.01378  -0.04377   0.02691
  88 5   H  1S         -0.02826  -0.00078  -0.01030  -0.03570   0.09808
  89        2S         -0.04676   0.08546   0.02108  -0.51436   1.54594
  90        3S         -2.99056   0.47287  -0.73934   0.68843  -1.24071
  91        4PX         0.00000   0.00000   0.00000   0.00000   0.00000
  92        4PY         0.02142  -0.00447  -0.00678  -0.00397   0.07295
  93        4PZ         0.02081   0.03046  -0.01378  -0.04377  -0.02691
                          31        32        33        34        35
                        (A1)--V   (B1)--V   (A2)--V   (A1)--V   (B2)--V
     Eigenvalues --     0.50998   0.54703   0.55983   0.63792   0.66792
   1 1   N  1S         -0.01132   0.00000   0.00000  -0.01709   0.00000
   2        2S         -0.01755   0.00000   0.00000  -0.02727   0.00000
   3        2PX         0.00000  -0.03397   0.00000   0.00000   0.00000
   4        2PY         0.00000   0.00000   0.00000   0.00000   0.03460
   5        2PZ        -0.03236   0.00000   0.00000  -0.00545   0.00000
   6        3S         -0.01779   0.00000   0.00000  -0.06098   0.00000
   7        3PX         0.00000  -0.09860   0.00000   0.00000   0.00000
   8        3PY         0.00000   0.00000   0.00000   0.00000   0.08470
   9        3PZ        -0.09170   0.00000   0.00000  -0.05211   0.00000
  10        4S          2.26221   0.00000   0.00000   2.88740   0.00000
  11        4PX         0.00000   0.11131   0.00000   0.00000   0.00000
  12        4PY         0.00000   0.00000   0.00000   0.00000  -0.03874
  13        4PZ        -1.41544   0.00000   0.00000  -2.72200   0.00000
  14        5S          9.45148   0.00000   0.00000  14.34724   0.00000
  15        5PX         0.00000   0.52763   0.00000   0.00000   0.00000
  16        5PY         0.00000   0.00000   0.00000   0.00000   0.81815
  17        5PZ        -1.43425   0.00000   0.00000  -2.89219   0.00000
  18        6D 0       -0.01438   0.00000   0.00000  -0.03358   0.00000
  19        6D+1        0.00000   0.00107   0.00000   0.00000   0.00000
  20        6D-1        0.00000   0.00000   0.00000   0.00000  -0.00077
  21        6D+2       -0.00081   0.00000   0.00000  -0.00049   0.00000
  22        6D-2        0.00000   0.00000   0.00084   0.00000   0.00000
  23        7D 0        0.06428   0.00000   0.00000   0.16118   0.00000
  24        7D+1        0.00000  -0.02823   0.00000   0.00000   0.00000
  25        7D-1        0.00000   0.00000   0.00000   0.00000   0.00626
  26        7D+2        0.01624   0.00000   0.00000   0.00669   0.00000
  27        7D-2        0.00000   0.00000   0.06306   0.00000   0.00000
  28 2   N  1S         -0.00552   0.00000   0.00000  -0.00317   0.00000
  29        2S         -0.00883   0.00000   0.00000  -0.00375   0.00000
  30        2PX         0.00000   0.03666   0.00000   0.00000   0.00000
  31        2PY         0.00000   0.00000   0.00000   0.00000   0.00594
  32        2PZ        -0.11752   0.00000   0.00000  -0.21018   0.00000
  33        3S          0.04769   0.00000   0.00000   0.11944   0.00000
  34        3PX         0.00000   0.09860   0.00000   0.00000   0.00000
  35        3PY         0.00000   0.00000   0.00000   0.00000   0.07882
  36        3PZ        -0.21301   0.00000   0.00000  -0.43533   0.00000
  37        4S          0.10082   0.00000   0.00000  -5.81351   0.00000
  38        4PX         0.00000  -0.28811   0.00000   0.00000   0.00000
  39        4PY         0.00000   0.00000   0.00000   0.00000  -0.40569
  40        4PZ        -2.59445   0.00000   0.00000  -0.18239   0.00000
  41        5S         -2.69361   0.00000   0.00000 -13.76051   0.00000
  42        5PX         0.00000  -0.68673   0.00000   0.00000   0.00000
  43        5PY         0.00000   0.00000   0.00000   0.00000  -2.12458
  44        5PZ        -7.00740   0.00000   0.00000  -6.00224   0.00000
  45        6D 0        0.00675   0.00000   0.00000   0.00001   0.00000
  46        6D+1        0.00000   0.00611   0.00000   0.00000   0.00000
  47        6D-1        0.00000   0.00000   0.00000   0.00000   0.00046
  48        6D+2        0.00005   0.00000   0.00000   0.00453   0.00000
  49        6D-2        0.00000   0.00000   0.00995   0.00000   0.00000
  50        7D 0       -0.06021   0.00000   0.00000  -0.50593   0.00000
  51        7D+1        0.00000   0.09224   0.00000   0.00000   0.00000
  52        7D-1        0.00000   0.00000   0.00000   0.00000   0.09353
  53        7D+2       -0.02222   0.00000   0.00000   0.01426   0.00000
  54        7D-2        0.00000   0.00000   0.19528   0.00000   0.00000
  55 3   C  1S          0.04360   0.00000   0.00000   0.00340   0.00000
  56        2S          0.07653   0.00000   0.00000  -0.00139   0.00000
  57        2PX         0.00000  -0.23545   0.00000   0.00000   0.00000
  58        2PY         0.00000   0.00000   0.00000   0.00000  -0.25810
  59        2PZ         0.05750   0.00000   0.00000  -0.23801   0.00000
  60        3S         -0.16194   0.00000   0.00000   0.16172   0.00000
  61        3PX         0.00000  -0.88333   0.00000   0.00000   0.00000
  62        3PY         0.00000   0.00000   0.00000   0.00000  -0.77113
  63        3PZ         0.17379   0.00000   0.00000  -0.18617   0.00000
  64        4S         -3.99627   0.00000   0.00000   0.80260   0.00000
  65        4PX         0.00000   1.80459   0.00000   0.00000   0.00000
  66        4PY         0.00000   0.00000   0.00000   0.00000   4.38285
  67        4PZ        -2.24554   0.00000   0.00000   3.35156   0.00000
  68        5S         -1.53494   0.00000   0.00000  -0.57891   0.00000
  69        5PX         0.00000  -0.51923   0.00000   0.00000   0.00000
  70        5PY         0.00000   0.00000   0.00000   0.00000   1.50535
  71        5PZ        -1.09566   0.00000   0.00000   0.02973   0.00000
  72        6D 0        0.02670   0.00000   0.00000   0.02171   0.00000
  73        6D+1        0.00000  -0.01306   0.00000   0.00000   0.00000
  74        6D-1        0.00000   0.00000   0.00000   0.00000  -0.00791
  75        6D+2       -0.02324   0.00000   0.00000   0.00488   0.00000
  76        6D-2        0.00000   0.00000   0.00290   0.00000   0.00000
  77        7D 0       -0.11088   0.00000   0.00000   0.79800   0.00000
  78        7D+1        0.00000  -0.12589   0.00000   0.00000   0.00000
  79        7D-1        0.00000   0.00000   0.00000   0.00000  -0.45833
  80        7D+2       -0.16833   0.00000   0.00000   0.36316   0.00000
  81        7D-2        0.00000   0.00000   0.88150   0.00000   0.00000
  82 4   H  1S          0.10981   0.00000   0.00000  -0.02018   0.05782
  83        2S          1.22510   0.00000   0.00000   0.33566  -0.69763
  84        3S         -3.04004   0.00000   0.00000   0.55867  -2.95945
  85        4PX         0.00000   0.00249   0.03627   0.00000   0.00000
  86        4PY         0.01047   0.00000   0.00000  -0.05944   0.10911
  87        4PZ         0.00542   0.00000   0.00000   0.04081  -0.04165
  88 5   H  1S          0.10981   0.00000   0.00000  -0.02018  -0.05782
  89        2S          1.22510   0.00000   0.00000   0.33566   0.69763
  90        3S         -3.04004   0.00000   0.00000   0.55867   2.95945
  91        4PX         0.00000   0.00249  -0.03627   0.00000   0.00000
  92        4PY        -0.01047   0.00000   0.00000   0.05944   0.10911
  93        4PZ         0.00542   0.00000   0.00000   0.04081   0.04165
                          36        37        38        39        40
                        (A1)--V   (A1)--V   (B2)--V   (B1)--V   (B1)--V
     Eigenvalues --     0.75719   0.76455   0.77327   0.78143   0.78854
   1 1   N  1S          0.00526   0.00927   0.00000   0.00000   0.00000
   2        2S          0.01103   0.01650   0.00000   0.00000   0.00000
   3        2PX         0.00000   0.00000   0.00000  -0.19315   0.13498
   4        2PY         0.00000   0.00000  -0.21333   0.00000   0.00000
   5        2PZ        -0.19462  -0.13223   0.00000   0.00000   0.00000
   6        3S         -0.00186  -0.00839   0.00000   0.00000   0.00000
   7        3PX         0.00000   0.00000   0.00000  -0.68757   0.32628
   8        3PY         0.00000   0.00000  -0.69330   0.00000   0.00000
   9        3PZ        -0.30961  -0.28285   0.00000   0.00000   0.00000
  10        4S         -3.01764  -2.21001   0.00000   0.00000   0.00000
  11        4PX         0.00000   0.00000   0.00000   1.34608  -0.56394
  12        4PY         0.00000   0.00000   1.25439   0.00000   0.00000
  13        4PZ         2.65147   2.23226   0.00000   0.00000   0.00000
  14        5S          6.39586  -4.46842   0.00000   0.00000   0.00000
  15        5PX         0.00000   0.00000   0.00000  -0.44833   0.67810
  16        5PY         0.00000   0.00000  -0.33723   0.00000   0.00000
  17        5PZ        -1.93954   0.77935   0.00000   0.00000   0.00000
  18        6D 0        0.01206   0.01658   0.00000   0.00000   0.00000
  19        6D+1        0.00000   0.00000   0.00000   0.01651   0.00071
  20        6D-1        0.00000   0.00000   0.01197   0.00000   0.00000
  21        6D+2       -0.00235   0.00296   0.00000   0.00000   0.00000
  22        6D-2        0.00000   0.00000   0.00000   0.00000   0.00000
  23        7D 0       -0.31838  -0.19874   0.00000   0.00000   0.00000
  24        7D+1        0.00000   0.00000   0.00000   0.10420   0.29196
  25        7D-1        0.00000   0.00000  -0.03228   0.00000   0.00000
  26        7D+2       -0.18219   0.24491   0.00000   0.00000   0.00000
  27        7D-2        0.00000   0.00000   0.00000   0.00000   0.00000
  28 2   N  1S          0.00643  -0.00538   0.00000   0.00000   0.00000
  29        2S          0.01052  -0.01123   0.00000   0.00000   0.00000
  30        2PX         0.00000   0.00000   0.00000  -0.12246  -0.08368
  31        2PY         0.00000   0.00000  -0.10843   0.00000   0.00000
  32        2PZ        -0.12886  -0.07188   0.00000   0.00000   0.00000
  33        3S         -0.12893   0.05159   0.00000   0.00000   0.00000
  34        3PX         0.00000   0.00000   0.00000  -0.45687  -0.24109
  35        3PY         0.00000   0.00000  -0.40153   0.00000   0.00000
  36        3PZ        -0.13790   0.00930   0.00000   0.00000   0.00000
  37        4S          2.79164   1.77170   0.00000   0.00000   0.00000
  38        4PX         0.00000   0.00000   0.00000   0.74135  -0.11133
  39        4PY         0.00000   0.00000   1.04814   0.00000   0.00000
  40        4PZ         2.33719   1.56968   0.00000   0.00000   0.00000
  41        5S         -4.13713   6.04466   0.00000   0.00000   0.00000
  42        5PX         0.00000   0.00000   0.00000  -0.84394  -0.90510
  43        5PY         0.00000   0.00000  -1.19519   0.00000   0.00000
  44        5PZ        -3.59700   1.17050   0.00000   0.00000   0.00000
  45        6D 0        0.00143   0.00659   0.00000   0.00000   0.00000
  46        6D+1        0.00000   0.00000   0.00000  -0.00422  -0.04244
  47        6D-1        0.00000   0.00000   0.01734   0.00000   0.00000
  48        6D+2       -0.00792   0.01373   0.00000   0.00000   0.00000
  49        6D-2        0.00000   0.00000   0.00000   0.00000   0.00000
  50        7D 0        0.43524   0.29057   0.00000   0.00000   0.00000
  51        7D+1        0.00000   0.00000   0.00000  -0.19220   0.15705
  52        7D-1        0.00000   0.00000  -0.25674   0.00000   0.00000
  53        7D+2       -0.31691   0.38293   0.00000   0.00000   0.00000
  54        7D-2        0.00000   0.00000   0.00000   0.00000   0.00000
  55 3   C  1S         -0.03405  -0.01723   0.00000   0.00000   0.00000
  56        2S         -0.06716  -0.03281   0.00000   0.00000   0.00000
  57        2PX         0.00000   0.00000   0.00000  -0.00086  -0.07446
  58        2PY         0.00000   0.00000  -0.02736   0.00000   0.00000
  59        2PZ        -0.08896  -0.01569   0.00000   0.00000   0.00000
  60        3S          0.54911   0.51676   0.00000   0.00000   0.00000
  61        3PX         0.00000   0.00000   0.00000  -0.10179  -0.21705
  62        3PY         0.00000   0.00000  -0.04258   0.00000   0.00000
  63        3PZ        -0.40236   0.10558   0.00000   0.00000   0.00000
  64        4S         -0.57192  -2.42260   0.00000   0.00000   0.00000
  65        4PX         0.00000   0.00000   0.00000  -0.06447   0.82915
  66        4PY         0.00000   0.00000   0.61782   0.00000   0.00000
  67        4PZ         0.26785   0.75833   0.00000   0.00000   0.00000
  68        5S         -1.45846  -1.08534   0.00000   0.00000   0.00000
  69        5PX         0.00000   0.00000   0.00000   0.50622   0.13405
  70        5PY         0.00000   0.00000   0.85971   0.00000   0.00000
  71        5PZ        -0.27956  -0.54561   0.00000   0.00000   0.00000
  72        6D 0        0.00068   0.00565   0.00000   0.00000   0.00000
  73        6D+1        0.00000   0.00000   0.00000   0.00267   0.01341
  74        6D-1        0.00000   0.00000  -0.00512   0.00000   0.00000
  75        6D+2        0.00413   0.00236   0.00000   0.00000   0.00000
  76        6D-2        0.00000   0.00000   0.00000   0.00000   0.00000
  77        7D 0        0.22117   0.25065   0.00000   0.00000   0.00000
  78        7D+1        0.00000   0.00000   0.00000   0.08326   1.04044
  79        7D-1        0.00000   0.00000  -0.70962   0.00000   0.00000
  80        7D+2       -0.44368   0.79821   0.00000   0.00000   0.00000
  81        7D-2        0.00000   0.00000   0.00000   0.00000   0.00000
  82 4   H  1S         -0.03353   0.00901   0.01830   0.00000   0.00000
  83        2S         -0.45581   1.19094  -0.46747   0.00000   0.00000
  84        3S          0.03470   0.28170  -0.59234   0.00000   0.00000
  85        4PX         0.00000   0.00000   0.00000  -0.02150  -0.03607
  86        4PY        -0.02963  -0.08457   0.06054   0.00000   0.00000
  87        4PZ         0.00638   0.04823  -0.00831   0.00000   0.00000
  88 5   H  1S         -0.03353   0.00901  -0.01830   0.00000   0.00000
  89        2S         -0.45581   1.19094   0.46747   0.00000   0.00000
  90        3S          0.03470   0.28170   0.59234   0.00000   0.00000
  91        4PX         0.00000   0.00000   0.00000  -0.02150  -0.03607
  92        4PY         0.02963   0.08457   0.06054   0.00000   0.00000
  93        4PZ         0.00638   0.04823   0.00831   0.00000   0.00000
                          41        42        43        44        45
                        (B2)--V   (A1)--V   (A2)--V   (B1)--V   (A1)--V
     Eigenvalues --     0.86147   0.86373   0.87248   0.87437   0.96534
   1 1   N  1S          0.00000  -0.00046   0.00000   0.00000   0.01531
   2        2S          0.00000   0.00105   0.00000   0.00000   0.02673
   3        2PX         0.00000   0.00000   0.00000   0.06685   0.00000
   4        2PY         0.10081   0.00000   0.00000   0.00000   0.00000
   5        2PZ         0.00000   0.15924   0.00000   0.00000   0.04087
   6        3S          0.00000  -0.11236   0.00000   0.00000  -0.17473
   7        3PX         0.00000   0.00000   0.00000   0.27930   0.00000
   8        3PY         0.41202   0.00000   0.00000   0.00000   0.00000
   9        3PZ         0.00000   0.22814   0.00000   0.00000  -0.07919
  10        4S          0.00000   5.07927   0.00000   0.00000   0.79933
  11        4PX         0.00000   0.00000   0.00000  -1.31926   0.00000
  12        4PY        -1.54428   0.00000   0.00000   0.00000   0.00000
  13        4PZ         0.00000  -3.43984   0.00000   0.00000  -0.38192
  14        5S          0.00000  18.05108   0.00000   0.00000  -4.98438
  15        5PX         0.00000   0.00000   0.00000   1.15218   0.00000
  16        5PY         1.21843   0.00000   0.00000   0.00000   0.00000
  17        5PZ         0.00000  -3.36933   0.00000   0.00000   1.39415
  18        6D 0        0.00000  -0.00576   0.00000   0.00000   0.00666
  19        6D+1        0.00000   0.00000   0.00000  -0.02112   0.00000
  20        6D-1       -0.02300   0.00000   0.00000   0.00000   0.00000
  21        6D+2        0.00000  -0.00040   0.00000   0.00000  -0.00669
  22        6D-2        0.00000   0.00000   0.00727   0.00000   0.00000
  23        7D 0        0.00000   0.43935   0.00000   0.00000   0.15171
  24        7D+1        0.00000   0.00000   0.00000  -0.12290   0.00000
  25        7D-1       -0.15779   0.00000   0.00000   0.00000   0.00000
  26        7D+2        0.00000   0.03682   0.00000   0.00000  -0.67886
  27        7D-2        0.00000   0.00000   0.62715   0.00000   0.00000
  28 2   N  1S          0.00000  -0.03293   0.00000   0.00000  -0.02306
  29        2S          0.00000  -0.06049   0.00000   0.00000  -0.04682
  30        2PX         0.00000   0.00000   0.00000  -0.20274   0.00000
  31        2PY        -0.18005   0.00000   0.00000   0.00000   0.00000
  32        2PZ         0.00000   0.16919   0.00000   0.00000   0.02683
  33        3S          0.00000   0.35451   0.00000   0.00000   0.46556
  34        3PX         0.00000   0.00000   0.00000  -0.72620   0.00000
  35        3PY        -0.61318   0.00000   0.00000   0.00000   0.00000
  36        3PZ         0.00000   0.27935   0.00000   0.00000  -0.01015
  37        4S          0.00000  -0.93741   0.00000   0.00000  -2.54481
  38        4PX         0.00000   0.00000   0.00000   2.36006   0.00000
  39        4PY         2.23763   0.00000   0.00000   0.00000   0.00000
  40        4PZ         0.00000  -6.69989   0.00000   0.00000   0.35160
  41        5S          0.00000  -6.09954   0.00000   0.00000   6.05695
  42        5PX         0.00000   0.00000   0.00000  -1.87859   0.00000
  43        5PY        -1.54829   0.00000   0.00000   0.00000   0.00000
  44        5PZ         0.00000 -11.44999   0.00000   0.00000   1.58836
  45        6D 0        0.00000   0.00480   0.00000   0.00000   0.01712
  46        6D+1        0.00000   0.00000   0.00000   0.01602   0.00000
  47        6D-1        0.01865   0.00000   0.00000   0.00000   0.00000
  48        6D+2        0.00000   0.00281   0.00000   0.00000   0.00121
  49        6D-2        0.00000   0.00000   0.00821   0.00000   0.00000
  50        7D 0        0.00000   0.01403   0.00000   0.00000  -0.25272
  51        7D+1        0.00000   0.00000   0.00000   0.14341   0.00000
  52        7D-1        0.09605   0.00000   0.00000   0.00000   0.00000
  53        7D+2        0.00000  -0.01581   0.00000   0.00000  -0.26035
  54        7D-2        0.00000   0.00000   0.59208   0.00000   0.00000
  55 3   C  1S          0.00000  -0.09184   0.00000   0.00000  -0.00177
  56        2S          0.00000  -0.18354   0.00000   0.00000  -0.00867
  57        2PX         0.00000   0.00000   0.00000   0.00560   0.00000
  58        2PY         0.03418   0.00000   0.00000   0.00000   0.00000
  59        2PZ         0.00000   0.02219   0.00000   0.00000   0.04844
  60        3S          0.00000   1.62692   0.00000   0.00000   0.31480
  61        3PX         0.00000   0.00000   0.00000  -0.04059   0.00000
  62        3PY         0.25547   0.00000   0.00000   0.00000   0.00000
  63        3PZ         0.00000  -0.34186   0.00000   0.00000   0.60064
  64        4S          0.00000 -11.82756   0.00000   0.00000  -0.64555
  65        4PX         0.00000   0.00000   0.00000  -0.45885   0.00000
  66        4PY        -0.58614   0.00000   0.00000   0.00000   0.00000
  67        4PZ         0.00000  -2.98346   0.00000   0.00000   0.98229
  68        5S          0.00000  -5.86148   0.00000   0.00000  -0.44863
  69        5PX         0.00000   0.00000   0.00000   0.63868   0.00000
  70        5PY         0.16536   0.00000   0.00000   0.00000   0.00000
  71        5PZ         0.00000  -1.32325   0.00000   0.00000  -0.53136
  72        6D 0        0.00000   0.00472   0.00000   0.00000   0.02404
  73        6D+1        0.00000   0.00000   0.00000  -0.00362   0.00000
  74        6D-1       -0.00139   0.00000   0.00000   0.00000   0.00000
  75        6D+2        0.00000  -0.00432   0.00000   0.00000   0.00622
  76        6D-2        0.00000   0.00000  -0.00313   0.00000   0.00000
  77        7D 0        0.00000  -0.25628   0.00000   0.00000   0.23320
  78        7D+1        0.00000   0.00000   0.00000  -0.45040   0.00000
  79        7D-1       -0.72396   0.00000   0.00000   0.00000   0.00000
  80        7D+2        0.00000   0.14358   0.00000   0.00000   1.03054
  81        7D-2        0.00000   0.00000  -0.31594   0.00000   0.00000
  82 4   H  1S         -0.00121  -0.02061   0.00000   0.00000   0.00892
  83        2S         -0.54406   0.68812   0.00000   0.00000   1.27971
  84        3S          0.71193  -0.48468   0.00000   0.00000  -0.17784
  85        4PX         0.00000   0.00000  -0.07739  -0.00588   0.00000
  86        4PY         0.04827  -0.10076   0.00000   0.00000  -0.06512
  87        4PZ        -0.00579   0.08693   0.00000   0.00000   0.03135
  88 5   H  1S          0.00121  -0.02061   0.00000   0.00000   0.00892
  89        2S          0.54406   0.68812   0.00000   0.00000   1.27971
  90        3S         -0.71193  -0.48468   0.00000   0.00000  -0.17784
  91        4PX         0.00000   0.00000   0.07739  -0.00588   0.00000
  92        4PY         0.04827   0.10076   0.00000   0.00000   0.06512
  93        4PZ         0.00579   0.08693   0.00000   0.00000   0.03135
                          46        47        48        49        50
                        (A1)--V   (B2)--V   (A1)--V   (A2)--V   (A1)--V
     Eigenvalues --     0.98407   1.00457   1.14294   1.22884   1.24723
   1 1   N  1S          0.08006   0.00000  -0.06357   0.00000   0.02548
   2        2S          0.16285   0.00000  -0.11798   0.00000   0.05298
   3        2PX         0.00000   0.00000   0.00000   0.00000   0.00000
   4        2PY         0.00000  -0.04454   0.00000   0.00000   0.00000
   5        2PZ         0.03072   0.00000  -0.07657   0.00000  -0.08820
   6        3S         -1.19969   0.00000   0.92910   0.00000  -0.57653
   7        3PX         0.00000   0.00000   0.00000   0.00000   0.00000
   8        3PY         0.00000  -0.06132   0.00000   0.00000   0.00000
   9        3PZ         0.24064   0.00000   0.46090   0.00000  -0.60609
  10        4S         -0.04645   0.00000  -3.49697   0.00000   7.75210
  11        4PX         0.00000   0.00000   0.00000   0.00000   0.00000
  12        4PY         0.00000   0.40520   0.00000   0.00000   0.00000
  13        4PZ         0.88406   0.00000   1.55377   0.00000  -2.65973
  14        5S          1.37131   0.00000  19.48879   0.00000 -13.03435
  15        5PX         0.00000   0.00000   0.00000   0.00000   0.00000
  16        5PY         0.00000   0.07103   0.00000   0.00000   0.00000
  17        5PZ         0.01330   0.00000  -4.94187   0.00000   3.80085
  18        6D 0       -0.01621   0.00000  -0.01812   0.00000  -0.00208
  19        6D+1        0.00000   0.00000   0.00000   0.00000   0.00000
  20        6D-1        0.00000  -0.00307   0.00000   0.00000   0.00000
  21        6D+2        0.00123   0.00000  -0.00401   0.00000  -0.00076
  22        6D-2        0.00000   0.00000   0.00000   0.00590   0.00000
  23        7D 0       -0.36686   0.00000  -0.45816   0.00000   0.11189
  24        7D+1        0.00000   0.00000   0.00000   0.00000   0.00000
  25        7D-1        0.00000  -0.30412   0.00000   0.00000   0.00000
  26        7D+2        0.00079   0.00000  -0.33432   0.00000  -0.14942
  27        7D-2        0.00000   0.00000   0.00000   0.81108   0.00000
  28 2   N  1S          0.04949   0.00000   0.06211   0.00000  -0.04900
  29        2S          0.10215   0.00000   0.13356   0.00000  -0.10150
  30        2PX         0.00000   0.00000   0.00000   0.00000   0.00000
  31        2PY         0.00000   0.10977   0.00000   0.00000   0.00000
  32        2PZ         0.06790   0.00000  -0.05735   0.00000  -0.08014
  33        3S         -0.95346   0.00000  -1.61372   0.00000   0.89997
  34        3PX         0.00000   0.00000   0.00000   0.00000   0.00000
  35        3PY         0.00000   0.52199   0.00000   0.00000   0.00000
  36        3PZ        -0.16323   0.00000   0.15909   0.00000  -0.19023
  37        4S          6.17781   0.00000  11.93624   0.00000   0.83041
  38        4PX         0.00000   0.00000   0.00000   0.00000   0.00000
  39        4PY         0.00000  -0.95263   0.00000   0.00000   0.00000
  40        4PZ         0.29698   0.00000  -3.16537   0.00000  -8.90521
  41        5S         -2.35781   0.00000 -15.40142   0.00000  16.09992
  42        5PX         0.00000   0.00000   0.00000   0.00000   0.00000
  43        5PY         0.00000  -0.12422   0.00000   0.00000   0.00000
  44        5PZ        -2.24257   0.00000  -8.88105   0.00000   2.99712
  45        6D 0       -0.03175   0.00000  -0.06081   0.00000  -0.00498
  46        6D+1        0.00000   0.00000   0.00000   0.00000   0.00000
  47        6D-1        0.00000   0.03560   0.00000   0.00000   0.00000
  48        6D+2        0.00077   0.00000   0.00248   0.00000   0.00166
  49        6D-2        0.00000   0.00000   0.00000  -0.01072   0.00000
  50        7D 0        0.20771   0.00000   1.13304   0.00000  -0.25261
  51        7D+1        0.00000   0.00000   0.00000   0.00000   0.00000
  52        7D-1        0.00000  -0.15003   0.00000   0.00000   0.00000
  53        7D+2        0.01338   0.00000   0.17856   0.00000   0.15976
  54        7D-2        0.00000   0.00000   0.00000  -0.79745   0.00000
  55 3   C  1S         -0.05028   0.00000   0.00093   0.00000   0.03185
  56        2S         -0.09943   0.00000   0.02323   0.00000   0.05736
  57        2PX         0.00000   0.00000   0.00000   0.00000   0.00000
  58        2PY         0.00000   0.07445   0.00000   0.00000   0.00000
  59        2PZ         0.09242   0.00000  -0.04761   0.00000  -0.24932
[...]
  85        4PX         0.00352   0.00000   0.00000   0.00000   0.00353
  86        4PY         0.00000   0.00199   0.00223   0.00236   0.00000
  87        4PZ         0.00000   0.00251  -0.00009   0.00053   0.00000
  88 5   H  1S          0.00000   0.02917   0.00921   0.02006   0.00000
  89        2S          0.00000   0.05693   0.01620   0.05770   0.00000
  90        3S          0.00000   0.00619   0.00139   0.00702   0.00000
  91        4PX         0.00352   0.00000   0.00000   0.00000   0.00353
  92        4PY         0.00000   0.00199   0.00223   0.00236   0.00000
  93        4PZ         0.00000   0.00251  -0.00009   0.00053   0.00000
                          66        67        68        69        70
  66        4PY         0.05768
  67        4PZ         0.00000   0.02042
  68        5S          0.00000   0.00000   0.00487
  69        5PX         0.00000   0.00000   0.00000   0.00916
  70        5PY         0.00555   0.00000   0.00000   0.00000   0.00127
  71        5PZ         0.00000   0.00084   0.00000   0.00000   0.00000
  72        6D 0        0.00000   0.00000   0.00000   0.00000   0.00000
  73        6D+1        0.00000   0.00000   0.00000   0.00000   0.00000
  74        6D-1        0.00000   0.00000   0.00000   0.00000   0.00000
  75        6D+2        0.00000   0.00000   0.00000   0.00000   0.00000
  76        6D-2        0.00000   0.00000   0.00000   0.00000   0.00000
  77        7D 0        0.00000   0.00000   0.00000   0.00000   0.00000
  78        7D+1        0.00000   0.00000   0.00000   0.00000   0.00000
  79        7D-1        0.00000   0.00000   0.00000   0.00000   0.00000
  80        7D+2        0.00000   0.00000   0.00000   0.00000   0.00000
  81        7D-2        0.00000   0.00000   0.00000   0.00000   0.00000
  82 4   H  1S          0.01652   0.00398   0.00159   0.00000   0.00095
  83        2S          0.04281   0.00933   0.00537   0.00000   0.00337
  84        3S          0.00904   0.00116   0.00046   0.00000   0.00120
  85        4PX         0.00000   0.00000   0.00000   0.00030   0.00000
  86        4PY        -0.00036   0.00043   0.00007   0.00000  -0.00007
  87        4PZ         0.00065  -0.00014   0.00002   0.00000   0.00001
  88 5   H  1S          0.01652   0.00398   0.00159   0.00000   0.00095
  89        2S          0.04281   0.00933   0.00537   0.00000   0.00337
  90        3S          0.00904   0.00116   0.00046   0.00000   0.00120
  91        4PX         0.00000   0.00000   0.00000   0.00030   0.00000
  92        4PY        -0.00036   0.00043   0.00007   0.00000  -0.00007
  93        4PZ         0.00065  -0.00014   0.00002   0.00000   0.00001
                          71        72        73        74        75
  71        5PZ         0.00071
  72        6D 0        0.00000   0.00095
  73        6D+1        0.00000   0.00000   0.00041
  74        6D-1        0.00000   0.00000   0.00000   0.00049
  75        6D+2        0.00000   0.00000   0.00000   0.00000   0.00020
  76        6D-2        0.00000   0.00000   0.00000   0.00000   0.00000
  77        7D 0        0.00000   0.00030   0.00000   0.00000   0.00000
  78        7D+1        0.00000   0.00000   0.00029   0.00000   0.00000
  79        7D-1        0.00000   0.00000   0.00000   0.00052   0.00000
  80        7D+2        0.00000   0.00000   0.00000   0.00000   0.00003
  81        7D-2        0.00000   0.00000   0.00000   0.00000   0.00000
  82 4   H  1S          0.00006   0.00005   0.00000   0.00051   0.00036
  83        2S          0.00017   0.00004   0.00000   0.00044   0.00028
  84        3S          0.00011   0.00000   0.00000   0.00003   0.00000
  85        4PX         0.00000   0.00000  -0.00004   0.00000   0.00000
  86        4PY         0.00000  -0.00002   0.00000   0.00005   0.00004
  87        4PZ         0.00001  -0.00001   0.00000   0.00000   0.00002
  88 5   H  1S          0.00006   0.00005   0.00000   0.00051   0.00036
  89        2S          0.00017   0.00004   0.00000   0.00044   0.00028
  90        3S          0.00011   0.00000   0.00000   0.00003   0.00000
  91        4PX         0.00000   0.00000  -0.00004   0.00000   0.00000
  92        4PY         0.00000  -0.00002   0.00000   0.00005   0.00004
  93        4PZ         0.00001  -0.00001   0.00000   0.00000   0.00002
                          76        77        78        79        80
  76        6D-2        0.00000
  77        7D 0        0.00000   0.00053
  78        7D+1        0.00000   0.00000   0.00122
  79        7D-1        0.00000   0.00000   0.00000   0.00496
  80        7D+2        0.00000   0.00000   0.00000   0.00000   0.00005
  81        7D-2        0.00000   0.00000   0.00000   0.00000   0.00000
  82 4   H  1S          0.00000   0.00001   0.00000  -0.00015   0.00022
  83        2S          0.00000   0.00002   0.00000  -0.00059   0.00023
  84        3S          0.00000   0.00001   0.00000   0.00022   0.00001
  85        4PX         0.00000   0.00000  -0.00008   0.00000   0.00000
  86        4PY         0.00000   0.00000   0.00000  -0.00004  -0.00002
  87        4PZ         0.00000  -0.00004   0.00000  -0.00003   0.00001
  88 5   H  1S          0.00000   0.00001   0.00000  -0.00015   0.00022
  89        2S          0.00000   0.00002   0.00000  -0.00059   0.00023
  90        3S          0.00000   0.00001   0.00000   0.00022   0.00001
  91        4PX         0.00000   0.00000  -0.00008   0.00000   0.00000
  92        4PY         0.00000   0.00000   0.00000  -0.00004  -0.00002
  93        4PZ         0.00000  -0.00004   0.00000  -0.00003   0.00001
                          81        82        83        84        85
  81        7D-2        0.00000
  82 4   H  1S          0.00000   0.07875
  83        2S          0.00000   0.08176   0.17151
  84        3S          0.00000   0.00876   0.02748   0.01034
  85        4PX         0.00000   0.00000   0.00000   0.00000   0.00074
  86        4PY         0.00000   0.00000   0.00000   0.00000   0.00000
  87        4PZ         0.00000   0.00000   0.00000   0.00000   0.00000
  88 5   H  1S          0.00000  -0.00001  -0.00076  -0.00155   0.00000
  89        2S          0.00000  -0.00076  -0.00663  -0.00629   0.00000
  90        3S          0.00000  -0.00155  -0.00629  -0.00427   0.00000
  91        4PX         0.00000   0.00000   0.00000   0.00000   0.00001
  92        4PY         0.00000   0.00001   0.00005  -0.00010   0.00000
  93        4PZ         0.00000   0.00000   0.00000   0.00000   0.00000
                          86        87        88        89        90
  86        4PY         0.00143
  87        4PZ         0.00000   0.00063
  88 5   H  1S          0.00001   0.00000   0.07875
  89        2S          0.00005   0.00000   0.08176   0.17151
  90        3S         -0.00010   0.00000   0.00876   0.02748   0.01034
  91        4PX         0.00000   0.00000   0.00000   0.00000   0.00000
  92        4PY         0.00004   0.00000   0.00000   0.00000   0.00000
  93        4PZ         0.00000   0.00000   0.00000   0.00000   0.00000
                          91        92        93
  91        4PX         0.00074
  92        4PY         0.00000   0.00143
  93        4PZ         0.00000   0.00000   0.00063
     Gross orbital populations:
                           1
   1 1   N  1S          1.09593
   2        2S          0.89539
   3        2PX         0.29173
   4        2PY         0.15299
   5        2PZ         0.23979
   6        3S          0.98365
   7        3PX         0.62647
   8        3PY         0.36104
   9        3PZ         0.53525
  10        4S          0.96027
  11        4PX         0.47068
  12        4PY         0.27459
  13        4PZ         0.20195
  14        5S         -0.03289
  15        5PX         0.03104
  16        5PY         0.00396
  17        5PZ         0.05559
  18        6D 0        0.00521
  19        6D+1        0.00191
  20        6D-1        0.00224
  21        6D+2        0.00001
  22        6D-2        0.00000
  23        7D 0        0.01387
  24        7D+1        0.02162
  25        7D-1        0.02301
  26        7D+2        0.00002
  27        7D-2        0.00000
  28 2   N  1S          1.09526
  29        2S          0.89619
  30        2PX         0.24355
  31        2PY         0.24028
  32        2PZ         0.27460
  33        3S          0.90059
  34        3PX         0.57032
  35        3PY         0.55285
  36        3PZ         0.61820
  37        4S          0.49233
  38        4PX         0.38693
  39        4PY         0.36071
  40        4PZ         0.05348
  41        5S         -0.10955
  42        5PX        -0.00634
  43        5PY         0.01087
  44        5PZ        -0.01102
  45        6D 0        0.00313
  46        6D+1        0.00478
  47        6D-1        0.00190
  48        6D+2        0.00000
  49        6D-2        0.00000
  50        7D 0        0.00765
  51        7D+1        0.08378
  52        7D-1        0.03459
  53        7D+2        0.00004
  54        7D-2        0.00000
  55 3   C  1S          1.10356
  56        2S          0.88516
  57        2PX         0.22420
  58        2PY         0.23343
  59        2PZ         0.19654
  60        3S          0.72950
  61        3PX         0.51985
  62        3PY         0.50986
  63        3PZ         0.43595
  64        4S          0.48664
  65        4PX         0.45059
  66        4PY         0.25445
  67        4PZ         0.12500
  68        5S          0.06179
  69        5PX         0.04059
  70        5PY         0.01876
  71        5PZ         0.01511
  72        6D 0        0.00763
  73        6D+1        0.00288
  74        6D-1        0.00458
  75        6D+2        0.00163
  76        6D-2        0.00000
  77        7D 0        0.00972
  78        7D+1        0.01727
  79        7D-1        0.03689
  80        7D+2        0.00097
  81        7D-2        0.00000
  82 4   H  1S          0.26965
  83        2S          0.50297
  84        3S          0.05141
  85        4PX         0.00908
  86        4PY         0.01413
  87        4PZ         0.00628
  88 5   H  1S          0.26965
  89        2S          0.50297
  90        3S          0.05141
  91        4PX         0.00908
  92        4PY         0.01413
  93        4PZ         0.00628
          Condensed to atoms (all electrons):
               1          2          3          4          5
     1  N    6.625846   0.689530  -0.073768  -0.013145  -0.013145
     2  N    0.689530   5.582070   0.487831  -0.027160  -0.027160
     3  C   -0.073768   0.487831   5.113334   0.422573   0.422573
     4  H   -0.013145  -0.027160   0.422573   0.499407  -0.028163
     5  H   -0.013145  -0.027160   0.422573  -0.028163   0.499407
 Mulliken charges:
               1
     1  N   -0.215319
     2  N    0.294889
     3  C   -0.372544
     4  H    0.146487
     5  H    0.146487
 Sum of Mulliken charges =   0.00000
 Mulliken charges with hydrogens summed into heavy atoms:
               1
     1  N   -0.215319
     2  N    0.294889
     3  C   -0.079570
 Electronic spatial extent (au):  <R**2>=            142.4000
 Charge=              0.0000 electrons
 Dipole moment (field-independent basis, Debye):
    X=              0.0000    Y=              0.0000    Z=             -2.2313  Tot=              2.2313
 Quadrupole moment (field-independent basis, Debye-Ang):
   XX=            -19.4615   YY=            -15.8589   ZZ=            -18.2036
   XY=              0.0000   XZ=              0.0000   YZ=              0.0000
 Traceless Quadrupole moment (field-independent basis, Debye-Ang):
   XX=             -1.6201   YY=              1.9824   ZZ=             -0.3623
   XY=              0.0000   XZ=              0.0000   YZ=              0.0000
 Octapole moment (field-independent basis, Debye-Ang**2):
  XXX=              0.0000  YYY=              0.0000  ZZZ=             -7.8785  XYY=              0.0000
  XXY=              0.0000  XXZ=              1.2419  XZZ=              0.0000  YZZ=              0.0000
  YYZ=             -1.7545  XYZ=              0.0000
 Hexadecapole moment (field-independent basis, Debye-Ang**3):
 XXXX=            -21.2946 YYYY=            -20.9909 ZZZZ=           -149.5459 XXXY=              0.0000
 XXXZ=              0.0000 YYYX=              0.0000 YYYZ=              0.0000 ZZZX=              0.0000
 ZZZY=              0.0000 XXYY=             -7.4746 XXZZ=            -32.5878 YYZZ=            -23.9068
 XXYZ=              0.0000 YYXZ=              0.0000 ZZXY=              0.0000
 N-N= 5.917215693347D+01 E-N=-4.647764714693D+02  KE= 1.477446662005D+02
 Symmetry A1   KE= 1.361705680748D+02
 Symmetry A2   KE= 3.962758393499D-35
 Symmetry B1   KE= 6.133626622047D+00
 Symmetry B2   KE= 5.440471503650D+00
 Orbital energies and kinetic energies (alpha):
                                 1                 2
   1         (A1)--O         -14.499467         22.067091
   2         (A1)--O         -14.435053         22.072439
   3         (A1)--O         -10.247854         15.963262
   4         (A1)--O          -1.079492          2.300768
   5         (A1)--O          -0.862937          2.036350
   6         (A1)--O          -0.593294          1.512608
   7         (B2)--O          -0.524145          1.223721
   8         (B1)--O          -0.467926          1.567856
   9         (A1)--O          -0.463580          2.132765
  10         (B2)--O          -0.393482          1.496514
  11         (B1)--O          -0.243968          1.498958
  12         (B2)--V          -0.077967          1.945169
  13         (B1)--V          -0.014119          1.616340
  14         (A1)--V           0.011047          0.313913
  15         (A1)--V           0.050026          0.232732
  16         (B2)--V           0.050280          0.256174
  17         (B1)--V           0.079089          0.601793
  18         (A1)--V           0.106655          0.464362
  19         (B2)--V           0.138315          0.429111
  20         (A1)--V           0.144230          0.690851
  21         (B1)--V           0.148713          0.393804
  22         (A1)--V           0.184161          1.154328
  23         (B2)--V           0.214357          0.494889
  24         (A1)--V           0.221703          0.485980
  25         (B1)--V           0.223890          0.447249
  26         (B2)--V           0.232917          0.836956
  27         (A1)--V           0.246719          1.714556
  28         (A1)--V           0.298014          0.695721
  29         (A1)--V           0.377439          1.235726
  30         (B2)--V           0.507777          1.320954
  31         (A1)--V           0.509975          1.482530
  32         (B1)--V           0.547029          1.489687
  33         (A2)--V           0.559826          1.100872
  34         (A1)--V           0.637924          2.027595
  35         (B2)--V           0.667921          1.592860
  36         (A1)--V           0.757190          2.004217
  37         (A1)--V           0.764550          1.545982
  38         (B2)--V           0.773268          1.925175
  39         (B1)--V           0.781433          1.897429
  40         (B1)--V           0.788540          1.672513
  41         (B2)--V           0.861465          1.869258
  42         (A1)--V           0.863731          2.668628
  43         (A2)--V           0.872483          1.518450
  44         (B1)--V           0.874373          1.894895
  45         (A1)--V           0.965337          1.666723
  46         (A1)--V           0.984075          2.881475
  47         (B2)--V           1.004566          1.785610
  48         (A1)--V           1.142941          2.635384
  49         (A2)--V           1.228843          1.884863
  50         (A1)--V           1.247226          2.802583
  51         (B2)--V           1.254513          2.129513
  52         (A1)--V           1.283468          2.472751
  53         (B1)--V           1.346401          2.215346
  54         (A1)--V           1.390794          2.126545
  55         (B2)--V           1.673136          2.546485
  56         (B1)--V           1.689520          2.362556
  57         (B1)--V           1.791071          2.824140
  58         (A2)--V           1.887546          2.516131
  59         (A1)--V           1.932259          3.493831
  60         (B2)--V           2.082371          3.509804
  61         (A1)--V           2.116496          3.427819
  62         (B2)--V           2.337714          3.668997
  63         (A1)--V           2.342271          3.623677
  64         (A1)--V           2.551820          4.443488
  65         (B2)--V           2.646834          4.078880
  66         (B1)--V           2.809422          6.306441
  67         (A1)--V           2.860364          4.599976
  68         (A2)--V           3.215856          4.913319
  69         (B2)--V           3.238673          6.219904
  70         (B1)--V           3.384599          5.739238
  71         (A1)--V           3.438294          6.308333
  72         (A1)--V           3.540127          6.106728
  73         (B1)--V           3.799055          8.369267
  74         (B2)--V           3.833179          8.663440
  75         (A1)--V           3.955592          7.109810
  76         (B2)--V           3.957809          8.951370
  77         (B1)--V           3.962807          8.950758
  78         (B2)--V           4.120447          6.280311
  79         (A1)--V           4.427375          8.974343
  80         (A2)--V           4.660109          7.138794
  81         (A1)--V           4.666684          7.167765
  82         (A1)--V           4.717178          7.877593
  83         (A2)--V           4.787919          7.250506
  84         (A1)--V           4.806115          7.328451
  85         (B1)--V           4.866621          7.317014
  86         (B2)--V           4.920115          7.384711
  87         (B1)--V           5.114598          7.663913
  88         (B2)--V           5.230875          7.759415
  89         (A1)--V           5.261970          9.238859
  90         (A1)--V           5.814265          8.907126
  91         (A1)--V          24.212335         60.514133
  92         (A1)--V          35.421286         89.057811
  93         (A1)--V          35.755911         88.966676
 Total kinetic energy from orbitals= 1.477446662005D+02
 1|1|UNPC-DESKTOP-KC5UJLK|SP|RAPFD|6-311+G(2d,p)|C1H2N2|23122|05-Feb-20
 22|0||# apfd/6-311+g(2d,p) pop=full geom=connectivity int=ultrafine||E
 nergy Calculation(GC)||0,1|N,0,0.,0.,1.35936858|N,0,0.,0.,0.12736858|C
 ,0,0.,0.,-1.16623142|H,0,0.,-0.92468743,-1.70488576|H,0,0.,0.92468743,
 -1.70488576||Version=IA32W-G09RevD.01|State=1-A1|HF=-148.6409713|RMSD=
 1.866e-009|Dipole=0.,0.,-0.8778676|Quadrupole=-1.2045397,1.4738669,-0.
 2693272,0.,0.,0.|PG=C02V [C2(C1N1N1),SGV(H2)]||@


 THE ENLIGHTENED ONE, BECAUSE HE SAW MANKIND DROWNING  
 IN THE GREAT SEA OF BIRTH, DEATH, AND SORROW, LONGED TO SAVE 
 THEM, FOR THIS HE WAS MOVED TO PITY.                         
 BECAUSE HE SAW MEN OF THE WORLD STRAYING IN FALSE PATHS, AND 
 NONE TO GUIDE THEM, FOR THIS HE WAS MOVED TO PITY.           
                     ..................                       
 BECAUSE HE SAW THE MEN OF THE WORLD PLOUGHING THEIR FIELDS,  
 SOWING THE SEED, TRAFFICKING, HUCKSTERING, BUYING, SELLING,  
 AND AT THE END WINNOWING NOTHING BUT BITTERNESS,             
 FOR THIS HE WAS MOVED TO PITY......                   
                   BUDAH'S PITY - UPSAKA SILA SUTRA           
 Job cpu time:       0 days  0 hours  0 minutes  8.0 seconds.
 File lengths (MBytes):  RWF=      5 Int=      0 D2E=      0 Chk=      1 Scr=      1
 Normal termination of Gaussian 09 at Sat Feb 05 18:10:50 2022.
