 Entering Link 1 = C:\G09W\l1.exe PID=      9036.
  
 Copyright (c) 1988,1990,1992,1993,1995,1998,2003,2009,2013,
            Gaussian, Inc.  All Rights Reserved.
  
 This is part of the Gaussian(R) 09 program.  It is based on
 the Gaussian(R) 03 system (copyright 2003, Gaussian, Inc.),
 the Gaussian(R) 98 system (copyright 1998, Gaussian, Inc.),
 the Gaussian(R) 94 system (copyright 1995, Gaussian, Inc.),
 the Gaussian 92(TM) system (copyright 1992, Gaussian, Inc.),
 the Gaussian 90(TM) system (copyright 1990, Gaussian, Inc.),
 the Gaussian 88(TM) system (copyright 1988, Gaussian, Inc.),
 the Gaussian 86(TM) system (copyright 1986, Carnegie Mellon
 University), and the Gaussian 82(TM) system (copyright 1983,
 Carnegie Mellon University). Gaussian is a federally registered
 trademark of Gaussian, Inc.
  
 This software contains proprietary and confidential information,
 including trade secrets, belonging to Gaussian, Inc.
  
 This software is provided under written license and may be
 used, copied, transmitted, or stored only in accord with that
 written license.
  
 The following legend is applicable only to US Government
 contracts under FAR:
  
                    RESTRICTED RIGHTS LEGEND
  
 Use, reproduction and disclosure by the US Government is
 subject to restrictions as set forth in subparagraphs (a)
 and (c) of the Commercial Computer Software - Restricted
 Rights clause in FAR 52.227-19.
  
 Gaussian, Inc.
 340 Quinnipiac St., Bldg. 40, Wallingford CT 06492
  
  
 ---------------------------------------------------------------
 Warning -- This program may not be used in any manner that
 competes with the business of Gaussian, Inc. or will provide
 assistance to any competitor of Gaussian, Inc.  The licensee
 of this program is prohibited from giving any competitor of
 Gaussian, Inc. access to this program.  By using this program,
 the user acknowledges that Gaussian, Inc. is engaged in the
 business of creating and licensing software in the field of
 computational chemistry and represents and warrants to the
 licensee that it is not a competitor of Gaussian, Inc. and that
 it will not use this program in any manner prohibited above.
 ---------------------------------------------------------------
  

 Cite this work as:
 Gaussian 09, Revision D.01,
 M. J. Frisch, G. W. Trucks, H. B. Schlegel, G. E. Scuseria, 
 M. A. Robb, J. R. Cheeseman, G. Scalmani, V. Barone, B. Mennucci, 
 G. A. Petersson, H. Nakatsuji, M. Caricato, X. Li, H. P. Hratchian, 
 A. F. Izmaylov, J. Bloino, G. Zheng, J. L. Sonnenberg, M. Hada, 
 M. Ehara, K. Toyota, R. Fukuda, J. Hasegawa, M. Ishida, T. Nakajima, 
 Y. Honda, O. Kitao, H. Nakai, T. Vreven, J. A. Montgomery, Jr., 
 J. E. Peralta, F. Ogliaro, M. Bearpark, J. J. Heyd, E. Brothers, 
 K. N. Kudin, V. N. Staroverov, T. Keith, R. Kobayashi, J. Normand, 
 K. Raghavachari, A. Rendell, J. C. Burant, S. S. Iyengar, J. Tomasi, 
 M. Cossi, N. Rega, J. M. Millam, M. Klene, J. E. Knox, J. B. Cross, 
 V. Bakken, C. Adamo, J. Jaramillo, R. Gomperts, R. E. Stratmann, 
 O. Yazyev, A. J. Austin, R. Cammi, C. Pomelli, J. W. Ochterski, 
 R. L. Martin, K. Morokuma, V. G. Zakrzewski, G. A. Voth, 
 P. Salvador, J. J. Dannenberg, S. Dapprich, A. D. Daniels, 
 O. Farkas, J. B. Foresman, J. V. Ortiz, J. Cioslowski, 
 and D. J. Fox, Gaussian, Inc., Wallingford CT, 2013.
 
 ******************************************
 Gaussian 09:  IA32W-G09RevD.01 24-Apr-2013
                15-Mar-2022 
 ******************************************
 %nprocshared=4
 Will use up to    4 processors via shared memory.
 %mem=1GB
 %chk=D:\mindmap\gaussian\calculate\opt_freq\qm2\1924-2.chk
 --------------------------------------------------------------
 # opt freq pm6 pop=full geom=connectivity scrf=(solvent=water)
 --------------------------------------------------------------
 1/14=-1,18=20,19=15,26=1,38=1,57=2/1,3;
 2/9=110,12=2,17=6,18=5,40=1/2;
 3/5=2,16=1,25=1,41=3900000,70=2201,71=1,72=1/1,2,3;
 4/35=1/1;
 5/5=2,35=1,38=5,53=1/2;
 6/7=3,28=1/1;
 7//1,2,3,16;
 1/14=-1,18=20,19=15,26=1/3(2);
 2/9=110/2;
 99//99;
 2/9=110/2;
 3/5=2,16=1,25=1,41=3900000,70=2205,71=1,72=1,135=20/1,2,3;
 4/5=5,16=3,35=1/1;
 5/5=2,35=1,38=5,53=1/2;
 7//1,2,3,16;
 1/14=-1,18=20,19=15,26=1/3(-5);
 2/9=110/2;
 6/7=3,19=2,28=1/1;
 99/9=1/99;
 ----------------------
 Energy Calculation(GC)
 ----------------------
 Symbolic Z-matrix:
 Charge =  0 Multiplicity = 1
 C                    -0.37672  -0.26043   0.02906 
 C                     1.55564   1.07896   0.02906 
 C                     0.37908   2.04912   0.02906 
 C                    -0.87227   1.18177   0.02906 
 H                    -0.70088  -0.81941  -0.88607 
 H                    -0.70088  -0.81941   0.9442 
 H                     2.19248   1.18646   0.94442 
 H                     2.19248   1.18646  -0.8863 
 H                     0.41047   2.70831  -0.87284 
 H                    -1.50055   1.38372   0.93097 
 H                    -1.50055   1.38372  -0.87284 
 N                     1.05365  -0.26043   0.02906 
 O                     0.41925   2.8926    1.18311 
 H                     0.45318   3.81153   0.90738 
 H                     1.99745  -0.53262  -0.18016 
 

 GradGradGradGradGradGradGradGradGradGradGradGradGradGradGradGradGradGrad
 Berny optimization.
 Initialization pass.
                           ----------------------------
                           !    Initial Parameters    !
                           ! (Angstroms and Degrees)  !
 --------------------------                            --------------------------
 ! Name  Definition              Value          Derivative Info.                !
 --------------------------------------------------------------------------------
 ! R1    R(1,4)                  1.525          estimate D2E/DX2                !
 ! R2    R(1,5)                  1.1203         estimate D2E/DX2                !
 ! R3    R(1,6)                  1.1203         estimate D2E/DX2                !
 ! R4    R(1,12)                 1.4304         estimate D2E/DX2                !
 ! R5    R(2,3)                  1.525          estimate D2E/DX2                !
 ! R6    R(2,7)                  1.1203         estimate D2E/DX2                !
 ! R7    R(2,8)                  1.1203         estimate D2E/DX2                !
 ! R8    R(2,12)                 1.4304         estimate D2E/DX2                !
 ! R9    R(3,4)                  1.5226         estimate D2E/DX2                !
 ! R10   R(3,9)                  1.1176         estimate D2E/DX2                !
 ! R11   R(3,13)                 1.43           estimate D2E/DX2                !
 ! R12   R(4,10)                 1.1176         estimate D2E/DX2                !
 ! R13   R(4,11)                 1.1176         estimate D2E/DX2                !
 ! R14   R(12,15)                1.0043         estimate D2E/DX2                !
 ! R15   R(13,14)                0.96           estimate D2E/DX2                !
 ! A1    A(4,1,5)              112.2011         estimate D2E/DX2                !
 ! A2    A(4,1,6)              112.2012         estimate D2E/DX2                !
 ! A3    A(4,1,12)             108.9629         estimate D2E/DX2                !
 ! A4    A(5,1,6)              109.5484         estimate D2E/DX2                !
 ! A5    A(5,1,12)             106.8196         estimate D2E/DX2                !
 ! A6    A(6,1,12)             106.8196         estimate D2E/DX2                !
 ! A7    A(3,2,7)              112.1817         estimate D2E/DX2                !
 ! A8    A(3,2,8)              112.1816         estimate D2E/DX2                !
 ! A9    A(3,2,12)             108.9629         estimate D2E/DX2                !
 ! A10   A(7,2,8)              109.5889         estimate D2E/DX2                !
 ! A11   A(7,2,12)             106.8196         estimate D2E/DX2                !
 ! A12   A(8,2,12)             106.8196         estimate D2E/DX2                !
 ! A13   A(2,3,4)              105.7643         estimate D2E/DX2                !
 ! A14   A(2,3,9)              110.7068         estimate D2E/DX2                !
 ! A15   A(2,3,13)             110.7069         estimate D2E/DX2                !
 ! A16   A(4,3,9)              111.0451         estimate D2E/DX2                !
 ! A17   A(4,3,13)             111.045          estimate D2E/DX2                !
 ! A18   A(9,3,13)             107.6128         estimate D2E/DX2                !
 ! A19   A(1,4,3)              105.7644         estimate D2E/DX2                !
 ! A20   A(1,4,10)             110.7069         estimate D2E/DX2                !
 ! A21   A(1,4,11)             110.7069         estimate D2E/DX2                !
 ! A22   A(3,4,10)             111.045          estimate D2E/DX2                !
 ! A23   A(3,4,11)             111.045          estimate D2E/DX2                !
 ! A24   A(10,4,11)            107.6128         estimate D2E/DX2                !
 ! A25   A(1,12,2)             110.5455         estimate D2E/DX2                !
 ! A26   A(1,12,15)            160.0109         estimate D2E/DX2                !
 ! A27   A(2,12,15)             85.64           estimate D2E/DX2                !
 ! A28   A(3,13,14)            109.5            estimate D2E/DX2                !
 ! D1    D(5,1,4,3)           -118.0794         estimate D2E/DX2                !
 ! D2    D(5,1,4,10)           121.5484         estimate D2E/DX2                !
 ! D3    D(5,1,4,11)             2.2928         estimate D2E/DX2                !
 ! D4    D(6,1,4,3)            118.0794         estimate D2E/DX2                !
 ! D5    D(6,1,4,10)            -2.2928         estimate D2E/DX2                !
 ! D6    D(6,1,4,11)          -121.5484         estimate D2E/DX2                !
 ! D7    D(12,1,4,3)             0.0            estimate D2E/DX2                !
 ! D8    D(12,1,4,10)         -120.3722         estimate D2E/DX2                !
 ! D9    D(12,1,4,11)          120.3722         estimate D2E/DX2                !
 ! D10   D(4,1,12,2)             0.0            estimate D2E/DX2                !
 ! D11   D(4,1,12,15)         -142.4517         estimate D2E/DX2                !
 ! D12   D(5,1,12,2)           121.4173         estimate D2E/DX2                !
 ! D13   D(5,1,12,15)          -21.0344         estimate D2E/DX2                !
 ! D14   D(6,1,12,2)          -121.4173         estimate D2E/DX2                !
 ! D15   D(6,1,12,15)           96.131          estimate D2E/DX2                !
 ! D16   D(7,2,3,4)           -118.0675         estimate D2E/DX2                !
 ! D17   D(7,2,3,9)            121.5603         estimate D2E/DX2                !
 ! D18   D(7,2,3,13)             2.3047         estimate D2E/DX2                !
 ! D19   D(8,2,3,4)            118.0675         estimate D2E/DX2                !
 ! D20   D(8,2,3,9)             -2.3047         estimate D2E/DX2                !
 ! D21   D(8,2,3,13)          -121.5603         estimate D2E/DX2                !
 ! D22   D(12,2,3,4)             0.0            estimate D2E/DX2                !
 ! D23   D(12,2,3,9)          -120.3722         estimate D2E/DX2                !
 ! D24   D(12,2,3,13)          120.3722         estimate D2E/DX2                !
 ! D25   D(3,2,12,1)             0.0            estimate D2E/DX2                !
 ! D26   D(3,2,12,15)          167.9401         estimate D2E/DX2                !
 ! D27   D(7,2,12,1)           121.3939         estimate D2E/DX2                !
 ! D28   D(7,2,12,15)          -70.6659         estimate D2E/DX2                !
 ! D29   D(8,2,12,1)          -121.3939         estimate D2E/DX2                !
 ! D30   D(8,2,12,15)           46.5462         estimate D2E/DX2                !
 ! D31   D(2,3,4,1)              0.0            estimate D2E/DX2                !
 ! D32   D(2,3,4,10)           120.1512         estimate D2E/DX2                !
 ! D33   D(2,3,4,11)          -120.1512         estimate D2E/DX2                !
 ! D34   D(9,3,4,1)            120.1511         estimate D2E/DX2                !
 ! D35   D(9,3,4,10)          -119.6977         estimate D2E/DX2                !
 ! D36   D(9,3,4,11)            -0.0001         estimate D2E/DX2                !
 ! D37   D(13,3,4,1)          -120.1511         estimate D2E/DX2                !
 ! D38   D(13,3,4,10)            0.0            estimate D2E/DX2                !
 ! D39   D(13,3,4,11)          119.6977         estimate D2E/DX2                !
 ! D40   D(2,3,13,14)          121.7257         estimate D2E/DX2                !
 ! D41   D(4,3,13,14)         -121.1036         estimate D2E/DX2                !
 ! D42   D(9,3,13,14)            0.6213         estimate D2E/DX2                !
 --------------------------------------------------------------------------------
 Trust Radius=3.00D-01 FncErr=1.00D-07 GrdErr=1.00D-07
 Number of steps in this run=     95 maximum allowed number of steps=    100.
 GradGradGradGradGradGradGradGradGradGradGradGradGradGradGradGradGradGrad

                          Input orientation:                          
 ---------------------------------------------------------------------
 Center     Atomic      Atomic             Coordinates (Angstroms)
 Number     Number       Type             X           Y           Z
 ---------------------------------------------------------------------
      1          6           0       -0.376723   -0.260434    0.029065
      2          6           0        1.555639    1.078956    0.029065
      3          6           0        0.379084    2.049123    0.029064
      4          6           0       -0.872267    1.181765    0.029064
      5          1           0       -0.700884   -0.819413   -0.886067
      6          1           0       -0.700884   -0.819413    0.944197
      7          1           0        2.192478    1.186455    0.944425
      8          1           0        2.192478    1.186455   -0.886295
      9          1           0        0.410473    2.708314   -0.872840
     10          1           0       -1.500546    1.383719    0.930967
     11          1           0       -1.500546    1.383718   -0.872840
     12          7           0        1.053648   -0.260434    0.029065
     13          8           0        0.419246    2.892605    1.183111
     14          1           0        0.453178    3.811528    0.907379
     15          1           0        1.997447   -0.532625   -0.180160
 ---------------------------------------------------------------------
                    Distance matrix (angstroms):
                    1          2          3          4          5
     1  C    0.000000
     2  C    2.351167   0.000000
     3  C    2.430082   1.524961   0.000000
     4  C    1.524960   2.430082   1.522560   0.000000
     5  H    1.120270   3.087583   3.198796   2.207159   0.000000
     6  H    1.120270   3.087583   3.198796   2.207160   1.830264
     7  H    3.087421   1.120270   2.206916   3.198526   3.968092
     8  H    3.087421   1.120270   2.206915   3.198526   3.520660
     9  H    3.201027   2.186240   1.117564   2.188425   3.698668
    10  H    2.186240   3.201027   2.188424   1.117564   2.965613
    11  H    2.186240   3.201028   2.188425   1.117564   2.343805
    12  N    1.430371   1.430371   2.406053   2.406052   2.056285
    13  O    3.450658   2.431570   1.430000   2.434503   4.394914
    14  H    4.247476   3.074704   1.970533   3.073093   5.098424
    15  H    2.398863   1.684091   3.054226   3.349353   2.803844
                    6          7          8          9         10
     6  H    0.000000
     7  H    3.520660   0.000000
     8  H    3.968092   1.830720   0.000000
     9  H    4.120873   2.965476   2.343454   0.000000
    10  H    2.343806   3.698313   4.120653   2.942833   0.000000
    11  H    2.965614   4.120654   3.698313   2.325199   1.803807
    12  N    2.056285   2.056284   2.056284   3.168686   3.168686
    13  O    3.884694   2.472301   3.215236   2.064213   2.454774
    14  H    4.772718   3.149214   3.624009   2.094776   3.116385
    15  H    2.937246   2.063483   1.868663   3.674504   4.140402
                   11         12         13         14         15
    11  H    0.000000
    12  N    3.168687   0.000000
    13  O    3.192065   3.417008   0.000000
    14  H    3.588939   4.208667   0.960000   0.000000
    15  H    4.048225   1.004300   4.010165   4.737000   0.000000
 Stoichiometry    C4H9NO
 Framework group  C1[X(C4H9NO)]
 Deg. of freedom    39
 Full point group                 C1      NOp   1
 Largest Abelian subgroup         C1      NOp   1
 Largest concise Abelian subgroup C1      NOp   1
                         Standard orientation:                         
 ---------------------------------------------------------------------
 Center     Atomic      Atomic             Coordinates (Angstroms)
 Number     Number       Type             X           Y           Z
 ---------------------------------------------------------------------
      1          6           0       -1.420613   -0.721950   -0.186433
      2          6           0       -0.096030    1.188863    0.163226
      3          6           0        0.821128   -0.002953    0.416012
      4          6           0       -0.036641   -1.240350    0.189580
      5          1           0       -2.204121   -1.033433    0.551197
      6          1           0       -1.726872   -1.040934   -1.215733
      7          1           0        0.256871    1.820157   -0.692305
      8          1           0       -0.220497    1.827659    1.075066
      9          1           0        1.222763    0.021651    1.458620
     10          1           0        0.383162   -1.875450   -0.628565
     11          1           0       -0.087189   -1.868058    1.112824
     12          7           0       -1.397137    0.708228   -0.186163
     13          8           0        1.936894    0.019068   -0.478126
     14          1           0        2.752558    0.039521    0.027714
     15          1           0       -1.698939    1.657083   -0.054984
 ---------------------------------------------------------------------
 Rotational constants (GHZ):      6.1662113      3.2693238      2.4364259
 Standard basis: VSTO-6G (5D, 7F)
 There are    33 symmetry adapted cartesian basis functions of A   symmetry.
 There are    33 symmetry adapted basis functions of A   symmetry.
    33 basis functions,   198 primitive gaussians,    33 cartesian basis functions
    18 alpha electrons       18 beta electrons
       nuclear repulsion energy       166.4026684856 Hartrees.
 Integral buffers will be    262144 words long.
 Regular integral format.
 Two-electron integral symmetry is turned off.
 ------------------------------------------------------------------------------
 Polarizable Continuum Model (PCM)
 =================================
 Model                : PCM (using non-symmetric T matrix).
 Atomic radii         : UFF (Universal Force Field).
 Polarization charges : Total charges.
 Charge compensation  : None.
 Solution method      : On-the-fly selection.
 Cavity type          : Scaled VdW (van der Waals Surface) (Alpha=1.100).
 Cavity algorithm     : GePol (No added spheres)
                        Default sphere list used, NSphG=   15.
                        Lebedev-Laikov grids with approx.  5.0 points / Ang**2.
                        Smoothing algorithm: Karplus/York (Gamma=1.0000).
                        Polarization charges: spherical gaussians, with
                                              point-specific exponents (IZeta= 3).
                        Self-potential: point-specific (ISelfS= 7).
                        Self-field    : sphere-specific E.n sum rule (ISelfD= 2).
 1st derivatives      : Analytical E(r).r(x)/FMM algorithm (CHGder, D1EAlg=3).
                        Cavity 1st derivative terms included.
 Solvent              : Water, Eps=  78.355300 Eps(inf)=   1.777849
 ------------------------------------------------------------------------------
 Spheres list:
 ISph  on   Nord     Re0    Alpha      Xe            Ye            Ze
    1   C      1    1.9255  1.100     -1.420613     -0.721950     -0.186433
    2   C      2    1.9255  1.100     -0.096030      1.188863      0.163226
    3   C      3    1.9255  1.100      0.821128     -0.002953      0.416012
    4   C      4    1.9255  1.100     -0.036641     -1.240350      0.189580
    5   H      5    1.4430  1.100     -2.204121     -1.033433      0.551197
    6   H      6    1.4430  1.100     -1.726872     -1.040934     -1.215733
    7   H      7    1.4430  1.100      0.256871      1.820157     -0.692305
    8   H      8    1.4430  1.100     -0.220497      1.827659      1.075066
    9   H      9    1.4430  1.100      1.222763      0.021651      1.458620
   10   H     10    1.4430  1.100      0.383162     -1.875450     -0.628565
   11   H     11    1.4430  1.100     -0.087189     -1.868058      1.112824
   12   N     12    1.8300  1.100     -1.397137      0.708228     -0.186163
   13   O     13    1.7500  1.100      1.936894      0.019068     -0.478126
   14   H     14    1.4430  1.100      2.752558      0.039521      0.027714
   15   H     15    1.4430  1.100     -1.698939      1.657083     -0.054984
 ------------------------------------------------------------------------------
 Do NDO integrals.
 One-electron integrals computed using PRISM.
 NBasis=    33 RedAO= F EigKep=  0.00D+00  NBF=    33
 NBsUse=    33 1.00D-04 EigRej=  0.00D+00 NBFU=    33
 Simple Huckel Guess.
 Overlap will be assumed to be unity.
 Keep J ints in memory in canonical form, NReq=4548223.
 Requested convergence on RMS density matrix=1.00D-08 within 128 cycles.
 Requested convergence on MAX density matrix=1.00D-06.
 Requested convergence on             energy=1.00D-06.
 No special actions if energy rises.
 Inv3:  Mode=1 IEnd=     4106700.
 Iteration    1 A*A^-1 deviation from unit magnitude is 2.55D-15 for    232.
 Iteration    1 A*A^-1 deviation from orthogonality  is 2.02D-15 for   1116   1002.
 Iteration    1 A^-1*A deviation from unit magnitude is 2.44D-15 for    608.
 Iteration    1 A^-1*A deviation from orthogonality  is 1.79D-07 for   1101    834.
 Iteration    2 A*A^-1 deviation from unit magnitude is 2.44D-15 for    903.
 Iteration    2 A*A^-1 deviation from orthogonality  is 2.55D-15 for    758      8.
 Iteration    2 A^-1*A deviation from unit magnitude is 9.99D-16 for      5.
 Iteration    2 A^-1*A deviation from orthogonality  is 5.09D-16 for    578    554.
 Error on total polarization charges =  0.00007
 SCF Done:  E(RPM6) = -0.130395417806E-01 A.U. after   14 cycles
            NFock= 13  Conv=0.64D-08     -V/T= 0.9994

 **********************************************************************

            Population analysis using the SCF density.

 **********************************************************************

 Orbital symmetries:
       Occupied  (A) (A) (A) (A) (A) (A) (A) (A) (A) (A) (A) (A)
                 (A) (A) (A) (A) (A) (A)
       Virtual   (A) (A) (A) (A) (A) (A) (A) (A) (A) (A) (A) (A)
                 (A) (A) (A)
 The electronic state is 1-A.
 Alpha  occ. eigenvalues --   -1.20519  -1.10640  -0.99802  -0.93665  -0.77924
 Alpha  occ. eigenvalues --   -0.74842  -0.69460  -0.64950  -0.58229  -0.53229
 Alpha  occ. eigenvalues --   -0.52513  -0.50817  -0.50354  -0.47455  -0.45548
 Alpha  occ. eigenvalues --   -0.42787  -0.39773  -0.30392
 Alpha virt. eigenvalues --    0.08749   0.09555   0.12026   0.13532   0.15894
 Alpha virt. eigenvalues --    0.17682   0.18224   0.19013   0.19870   0.20838
 Alpha virt. eigenvalues --    0.21233   0.21463   0.22007   0.22457   0.27718
     Molecular Orbital Coefficients:
                           1         2         3         4         5
                           O         O         O         O         O
     Eigenvalues --    -1.20519  -1.10640  -0.99802  -0.93665  -0.77924
   1 1   C  1S          0.30213  -0.04204   0.34912   0.41157  -0.28706
   2        1PX         0.06066   0.02518   0.11685  -0.08952   0.16540
   3        1PY         0.14215  -0.04228  -0.11006   0.05656  -0.10173
   4        1PZ         0.02100   0.00109   0.02999  -0.02523   0.05682
   5 2   C  1S          0.38823   0.00829  -0.12963  -0.40413  -0.16524
   6        1PX        -0.14210   0.11387   0.14075  -0.12309  -0.23682
   7        1PY        -0.09758  -0.03533  -0.11859   0.01248   0.08735
   8        1PZ        -0.03010   0.01028   0.03860  -0.04644  -0.04095
   9 3   C  1S          0.23253   0.32383   0.25522  -0.39289  -0.15480
  10        1PX        -0.09311   0.19505  -0.12635   0.08867  -0.02520
  11        1PY         0.02481  -0.01051  -0.14004  -0.09354  -0.29542
  12        1PZ        -0.03188  -0.09815   0.02122  -0.04199   0.00722
  13 4   C  1S          0.20006   0.09739   0.51811  -0.02804   0.43917
  14        1PX        -0.03804   0.07120  -0.04267  -0.16692   0.12876
  15        1PY         0.09692   0.03423   0.05267  -0.07310  -0.18353
  16        1PZ        -0.00972   0.00072  -0.00316  -0.05703   0.04291
  17 5   H  1S          0.09960  -0.01851   0.14011   0.19252  -0.15363
  18 6   H  1S          0.09600  -0.01410   0.14133   0.19303  -0.16440
  19 7   H  1S          0.13126   0.01331  -0.07836  -0.17478  -0.07432
  20 8   H  1S          0.13911  -0.00355  -0.07915  -0.18851  -0.05182
  21 9   H  1S          0.07643   0.13597   0.09720  -0.17709  -0.06983
  22 10  H  1S          0.06237   0.05028   0.20697   0.00071   0.26509
  23 11  H  1S          0.06339   0.03543   0.21515  -0.01117   0.27114
  24 12  N  1S          0.65763  -0.18094  -0.28638   0.23707   0.11780
  25        1PX         0.12144   0.00060  -0.00392  -0.15161  -0.01898
  26        1PY        -0.00341  -0.01826  -0.24755  -0.21736   0.34346
  27        1PZ         0.06406  -0.01422  -0.02527  -0.03599   0.03316
  28 13  O  1S          0.06965   0.76721  -0.23171   0.25513   0.04813
  29        1PX        -0.04873  -0.00320  -0.12379   0.20651   0.13973
  30        1PY         0.00320  -0.00205  -0.03509  -0.02056  -0.10873
  31        1PZ         0.03676   0.23949  -0.01306  -0.03070  -0.04900
  32 14  H  1S          0.02558   0.32442  -0.11518   0.13875   0.06031
  33 15  H  1S          0.24013  -0.07440  -0.21648  -0.00475   0.21578
                           6         7         8         9        10
                           O         O         O         O         O
     Eigenvalues --    -0.74842  -0.69460  -0.64950  -0.58229  -0.53229
   1 1   C  1S          0.16183  -0.00135  -0.15497  -0.00046   0.07651
   2        1PX         0.06922  -0.06620   0.30060  -0.06922   0.07267
   3        1PY        -0.25089   0.04403   0.27734  -0.00635  -0.19056
   4        1PZ         0.01562   0.12980   0.01758   0.49164  -0.16516
   5 2   C  1S          0.39637  -0.03619   0.03232  -0.00898  -0.02977
   6        1PX         0.02900  -0.02066  -0.07412  -0.06198  -0.22667
   7        1PY         0.20463  -0.03164  -0.30697  -0.05704  -0.05524
   8        1PZ         0.01001   0.23889  -0.08243   0.22538   0.41739
   9 3   C  1S         -0.30335   0.11285  -0.05954  -0.04405   0.06386
  10        1PX        -0.15769  -0.06038  -0.31205  -0.07471  -0.10892
  11        1PY         0.16182   0.00475  -0.02133   0.01857  -0.14783
  12        1PZ        -0.02234   0.46889  -0.08366  -0.09883   0.00995
  13 4   C  1S          0.11131  -0.03807   0.03271  -0.00075  -0.05927
  14        1PX        -0.23268  -0.02373   0.00428  -0.13336   0.02150
  15        1PY        -0.13232   0.03488   0.21281   0.05381   0.28753
  16        1PZ        -0.05356   0.23739  -0.03265   0.29690  -0.32681
  17 5   H  1S          0.09862   0.07133  -0.25929   0.25459  -0.03973
  18 6   H  1S          0.10117  -0.07091  -0.19350  -0.29449   0.17877
  19 7   H  1S          0.24931  -0.14177  -0.07423  -0.14669  -0.31238
  20 8   H  1S          0.25217   0.09269  -0.14349   0.09753   0.22295
  21 9   H  1S         -0.17311   0.31630  -0.15485  -0.10407   0.00800
  22 10  H  1S          0.06739  -0.14124  -0.04919  -0.19618   0.03300
  23 11  H  1S          0.07457   0.09113  -0.08387   0.14593  -0.33614
  24 12  N  1S         -0.30080   0.01426   0.02399  -0.04257  -0.10757
  25        1PX         0.17914  -0.07012   0.33409  -0.04296   0.03214
  26        1PY         0.07892  -0.04233  -0.30183  -0.00724   0.18562
  27        1PZ         0.02722   0.10978  -0.00144   0.31152   0.16962
  28 13  O  1S          0.11046  -0.17810   0.08784   0.22406   0.07424
  29        1PX         0.31739   0.54069   0.23981  -0.24466  -0.00361
  30        1PY         0.07568   0.01493  -0.00672   0.01940  -0.24902
  31        1PZ        -0.13821   0.16324  -0.17600  -0.26787  -0.12597
  32 14  H  1S          0.13716   0.29012   0.09337  -0.18095  -0.03080
  33 15  H  1S         -0.05949   0.00330  -0.26937   0.01203   0.09611
                          11        12        13        14        15
                           O         O         O         O         O
     Eigenvalues --    -0.52513  -0.50817  -0.50354  -0.47455  -0.45548
   1 1   C  1S         -0.08626  -0.04369   0.04145   0.02106   0.05239
   2        1PX        -0.17663   0.22673  -0.01276   0.09004   0.47092
   3        1PY         0.35635   0.04235   0.13399  -0.01366   0.10912
   4        1PZ        -0.13681   0.03872   0.19181  -0.31731  -0.00596
   5 2   C  1S          0.09187  -0.02946   0.09357   0.01055  -0.09898
   6        1PX         0.18886  -0.05516  -0.24914  -0.29930   0.19011
   7        1PY         0.21523  -0.15126   0.26379   0.03587   0.38101
   8        1PZ         0.30938   0.29452  -0.02506   0.04753   0.06965
   9 3   C  1S         -0.06128  -0.08521  -0.11487  -0.06270  -0.03899
  10        1PX        -0.06665   0.21866   0.25811   0.21062   0.07223
  11        1PY        -0.02294   0.35452  -0.27429  -0.03137  -0.10074
  12        1PZ         0.02939  -0.03376  -0.09744   0.24587   0.02080
  13 4   C  1S          0.05011   0.04008  -0.03090  -0.06479   0.10449
  14        1PX         0.34049  -0.22050   0.06124  -0.13868  -0.36141
  15        1PY        -0.21105  -0.33599   0.02090  -0.16384   0.31099
  16        1PZ        -0.04317  -0.24749  -0.03618   0.33429   0.04561
  17 5   H  1S         -0.09693  -0.13875   0.09445  -0.19859  -0.27297
  18 6   H  1S          0.01062  -0.10550  -0.13646   0.22291  -0.10078
  19 7   H  1S          0.01419  -0.25320   0.10335  -0.08155   0.12271
  20 8   H  1S          0.30727   0.09445   0.16022   0.07603   0.15506
  21 9   H  1S         -0.01939  -0.00924  -0.07198   0.22098   0.01357
  22 10  H  1S          0.22855   0.22028   0.01101  -0.18002  -0.21415
  23 11  H  1S          0.07619   0.01630  -0.05029   0.25018  -0.04269
  24 12  N  1S          0.07328   0.07086  -0.06788  -0.00840   0.04442
  25        1PX        -0.25746   0.05545   0.24229   0.33410  -0.31996
  26        1PY        -0.33935  -0.08639  -0.21676  -0.05777  -0.05319
  27        1PZ        -0.00438   0.16434   0.12891  -0.11352  -0.10837
  28 13  O  1S          0.10757  -0.09302  -0.16501   0.14858   0.00869
  29        1PX         0.01547  -0.12015  -0.07215  -0.19869  -0.05736
  30        1PY        -0.08892   0.33935  -0.40444  -0.06508   0.04701
  31        1PZ        -0.27061   0.29711   0.44154  -0.18986   0.03977
  32 14  H  1S         -0.05686   0.00314   0.05452  -0.17182  -0.02593
  33 15  H  1S         -0.09758  -0.04694  -0.19689  -0.14464   0.10747
                          16        17        18        19        20
                           O         O         O         V         V
     Eigenvalues --    -0.42787  -0.39773  -0.30392   0.08749   0.09555
   1 1   C  1S          0.02829   0.02458   0.02227   0.08805   0.16773
   2        1PX         0.09765  -0.09439   0.04759  -0.08033   0.07741
   3        1PY         0.00930   0.04394   0.05402   0.46642   0.38428
   4        1PZ         0.26124  -0.00043  -0.17818  -0.02206   0.01352
   5 2   C  1S         -0.04340  -0.05698   0.00572   0.03475  -0.04194
   6        1PX        -0.02849  -0.26538   0.03199  -0.24787  -0.17815
   7        1PY         0.10635   0.22984  -0.00497  -0.03292   0.04206
   8        1PZ        -0.21441  -0.02712  -0.18134  -0.06852  -0.07485
   9 3   C  1S          0.01360  -0.00837  -0.00595  -0.15750   0.21049
  10        1PX         0.18106   0.03106   0.02638  -0.35479   0.33986
  11        1PY         0.02354  -0.29584  -0.00784   0.15588   0.18514
  12        1PZ         0.37902   0.02923   0.01969   0.27630  -0.36239
  13 4   C  1S         -0.03549   0.05482  -0.01676   0.04682  -0.03119
  14        1PX        -0.09480   0.25145   0.01178  -0.05894   0.04469
  15        1PY        -0.08327   0.21626  -0.02485   0.05988   0.00962
  16        1PZ        -0.38112  -0.02642   0.04465  -0.01379   0.00012
  17 5   H  1S          0.10047   0.06489  -0.20202   0.01852   0.03281
  18 6   H  1S         -0.21388   0.03110   0.20241  -0.00344  -0.00439
  19 7   H  1S          0.15449   0.04001   0.18901   0.01769  -0.11344
  20 8   H  1S         -0.11520   0.08659  -0.19008  -0.07181   0.04596
  21 9   H  1S          0.39152   0.02650   0.02656   0.02184   0.04610
  22 10  H  1S          0.21823   0.00818  -0.02091   0.11326  -0.01978
  23 11  H  1S         -0.22749  -0.09989   0.03738   0.00721   0.11875
  24 12  N  1S          0.02152  -0.06309  -0.08828  -0.35895  -0.29195
  25        1PX         0.06734   0.12301  -0.13813  -0.07793   0.04548
  26        1PY        -0.04272  -0.03726  -0.06525   0.07831   0.08593
  27        1PZ         0.02991   0.06502   0.85578  -0.09723  -0.05092
  28 13  O  1S          0.10927   0.00511  -0.00557   0.17442  -0.20318
  29        1PX        -0.00735  -0.02163   0.01036  -0.14880   0.15239
  30        1PY        -0.07833   0.77690  -0.02149  -0.02887  -0.02624
  31        1PZ        -0.36954  -0.01965  -0.01876   0.30219  -0.33806
  32 14  H  1S         -0.10925  -0.00778   0.00279  -0.18092   0.23240
  33 15  H  1S         -0.04194  -0.06284   0.06136   0.30239   0.29191
                          21        22        23        24        25
                           V         V         V         V         V
     Eigenvalues --     0.12026   0.13532   0.15894   0.17682   0.18224
   1 1   C  1S          0.19209  -0.12114  -0.23657  -0.12422  -0.02680
   2        1PX         0.36217  -0.09706  -0.37688  -0.11683   0.08841
   3        1PY        -0.01484  -0.13145   0.13002   0.26537  -0.03087
   4        1PZ         0.09352  -0.01649  -0.10508  -0.04487  -0.13230
   5 2   C  1S          0.00121  -0.19270   0.16832  -0.16292  -0.03792
   6        1PX         0.32349  -0.24277   0.13802   0.43295   0.12632
   7        1PY        -0.02924   0.43473  -0.24316   0.36187  -0.01674
   8        1PZ         0.09156  -0.05357   0.03359   0.10578  -0.12922
   9 3   C  1S         -0.27279   0.07656  -0.28581   0.12986  -0.36799
  10        1PX         0.24074  -0.11767   0.42004  -0.15125  -0.24448
  11        1PY         0.19342   0.63022   0.00699  -0.11903  -0.00474
  12        1PZ         0.19974  -0.03327   0.02667   0.01730  -0.28311
  13 4   C  1S          0.00738   0.15207   0.31015  -0.03329  -0.02653
  14        1PX         0.54925   0.09366  -0.23269  -0.25769   0.14332
  15        1PY         0.17863   0.31699   0.45930  -0.05309   0.03357
  16        1PZ         0.15900   0.02821  -0.07918  -0.05867  -0.24504
  17 5   H  1S          0.08834   0.00714   0.02805   0.14201   0.16881
  18 6   H  1S          0.06975   0.03765   0.02536   0.11725  -0.09322
  19 7   H  1S         -0.04880  -0.06016  -0.01558  -0.16471  -0.12390
  20 8   H  1S         -0.07703  -0.08266  -0.00218  -0.14135   0.14897
  21 9   H  1S         -0.10007   0.00422   0.05034  -0.05977   0.58112
  22 10  H  1S          0.02209   0.07992   0.06295   0.05701  -0.24259
  23 11  H  1S         -0.02916   0.07222   0.09321   0.03486   0.26568
  24 12  N  1S          0.00286   0.14990   0.00496   0.07666   0.02271
  25        1PX         0.22598   0.00103  -0.00284   0.51795   0.03048
  26        1PY         0.08834  -0.02068   0.05217   0.16226  -0.00851
  27        1PZ         0.01676   0.05038   0.01319   0.11175   0.05540
  28 13  O  1S          0.04960  -0.00101  -0.01379   0.00563  -0.00981
  29        1PX         0.02055  -0.01380   0.08230  -0.03412  -0.12652
  30        1PY        -0.02791  -0.10387  -0.00229   0.01092  -0.00429
  31        1PZ         0.05896   0.00418  -0.03288   0.00659   0.06549
  32 14  H  1S         -0.14203   0.02814  -0.09867   0.04124   0.11680
  33 15  H  1S          0.14721  -0.24184  -0.04899   0.09637   0.01894
                          26        27        28        29        30
                           V         V         V         V         V
     Eigenvalues --     0.19013   0.19870   0.20838   0.21233   0.21463
   1 1   C  1S         -0.00450  -0.01971  -0.19456  -0.36492   0.16980
   2        1PX        -0.08889   0.03661   0.17177   0.23096  -0.21977
   3        1PY         0.00223   0.02352   0.02869   0.16492  -0.07440
   4        1PZ         0.35533   0.00102  -0.25005   0.33795   0.31128
   5 2   C  1S         -0.03440   0.05080  -0.31079  -0.11574  -0.18862
   6        1PX         0.10338  -0.09596   0.00871  -0.10467   0.05283
   7        1PY        -0.04286  -0.02850  -0.22271  -0.09170  -0.09417
   8        1PZ        -0.21901   0.49094  -0.18894   0.10814  -0.00147
   9 3   C  1S         -0.18151  -0.18079   0.02548   0.04774   0.01814
  10        1PX        -0.08135  -0.04011  -0.00105   0.00226  -0.02158
  11        1PY        -0.00024  -0.02279   0.04717   0.00273   0.00555
  12        1PZ        -0.12679  -0.02676   0.22724  -0.10141   0.20072
  13 4   C  1S          0.00507  -0.01977  -0.06746  -0.01595  -0.16167
  14        1PX        -0.06773  -0.00642  -0.06834   0.00470   0.07161
  15        1PY         0.02516   0.05467   0.09262  -0.05417   0.14458
  16        1PZ         0.36502   0.09341   0.09346  -0.14970  -0.34229
  17 5   H  1S         -0.29588   0.04267   0.38816   0.20331  -0.44128
  18 6   H  1S          0.31890   0.02764  -0.04249   0.60858   0.08053
  19 7   H  1S         -0.17426   0.37784   0.17893   0.23879   0.14732
  20 8   H  1S          0.23498  -0.42457   0.45061   0.03738   0.16209
  21 9   H  1S          0.24382   0.12274  -0.21748   0.05467  -0.17449
  22 10  H  1S          0.33259   0.10495   0.17889  -0.13520  -0.08120
  23 11  H  1S         -0.33143  -0.04446   0.00763   0.09120   0.44926
  24 12  N  1S          0.00576  -0.00142   0.01479   0.01794   0.00252
  25        1PX         0.02844  -0.00475   0.01574  -0.07569   0.12296
  26        1PY         0.01479   0.02683  -0.02971   0.03559   0.01248
  27        1PZ        -0.01805  -0.07125   0.06801  -0.05763  -0.02956
  28 13  O  1S         -0.04426  -0.11159  -0.05167   0.03697  -0.02210
  29        1PX        -0.13107  -0.31030  -0.20853   0.15391  -0.14462
  30        1PY        -0.00276  -0.00336  -0.01637   0.00051  -0.00482
  31        1PZ        -0.01909  -0.10899  -0.06743   0.04592  -0.03023
  32 14  H  1S          0.18529   0.46489   0.28672  -0.20474   0.17817
  33 15  H  1S          0.00694  -0.01355   0.01525  -0.10002   0.06663
                          31        32        33
                           V         V         V
     Eigenvalues --     0.22007   0.22457   0.27718
   1 1   C  1S          0.13176   0.02272   0.28869
   2        1PX        -0.10815  -0.18506   0.02890
   3        1PY        -0.07194   0.05760   0.31116
   4        1PZ        -0.09737   0.00308  -0.03251
   5 2   C  1S         -0.39028  -0.21866  -0.04835
   6        1PX         0.00481   0.02259   0.03969
   7        1PY        -0.11282  -0.06865  -0.06741
   8        1PZ         0.21646   0.03276  -0.00439
   9 3   C  1S          0.01853  -0.02598  -0.00810
  10        1PX        -0.03713   0.00873  -0.01353
  11        1PY         0.04603   0.14632  -0.01862
  12        1PZ        -0.28516   0.04893  -0.00589
  13 4   C  1S         -0.11053   0.52598  -0.02570
  14        1PX        -0.05540   0.09165   0.02867
  15        1PY         0.06056  -0.26422  -0.04256
  16        1PZ         0.15627  -0.04941   0.01411
  17 5   H  1S         -0.10094  -0.08924  -0.03727
  18 6   H  1S         -0.20038  -0.01946  -0.08064
  19 7   H  1S          0.44309   0.17497   0.05399
  20 8   H  1S          0.12713   0.13035   0.08294
  21 9   H  1S          0.20873  -0.02038   0.00838
  22 10  H  1S          0.23429  -0.51685   0.00492
  23 11  H  1S         -0.01578  -0.40059  -0.00175
  24 12  N  1S          0.01337  -0.00656   0.07070
  25        1PX         0.20539   0.14807  -0.12295
  26        1PY        -0.01251   0.01088   0.63396
  27        1PZ         0.01389   0.01485   0.05526
  28 13  O  1S          0.05344  -0.01428   0.00184
  29        1PX         0.26507  -0.06812   0.00076
  30        1PY        -0.00524  -0.03602   0.00115
  31        1PZ         0.08477  -0.02271   0.00509
  32 14  H  1S         -0.34235   0.08834  -0.00379
  33 15  H  1S          0.11848   0.07200  -0.60203
     Density Matrix:
                           1         2         3         4         5
   1 1   C  1S          1.07788
   2        1PX        -0.04618   0.99259
   3        1PY        -0.11698   0.03385   0.77914
   4        1PZ        -0.01737  -0.03120   0.00502   1.09863
   5 2   C  1S         -0.00103  -0.02577   0.01438  -0.00642   1.10357
   6        1PX        -0.01906  -0.00973   0.07537  -0.00103   0.04757
   7        1PY         0.03086   0.02403   0.04611   0.00798   0.05208
   8        1PZ        -0.00844  -0.00463   0.02017  -0.00789   0.01593
   9 3   C  1S         -0.01140  -0.01246  -0.01465  -0.00309   0.21133
  10        1PX        -0.00101  -0.00806   0.00235  -0.00263  -0.23826
  11        1PY        -0.02815   0.00871  -0.05557   0.00136   0.33808
  12        1PZ         0.01023   0.01675  -0.00655   0.00695  -0.10199
  13 4   C  1S          0.20962   0.40130  -0.11865   0.10940  -0.02753
  14        1PX        -0.41383  -0.59550   0.24494  -0.18084   0.02907
  15        1PY         0.17074   0.24312   0.03322   0.06565  -0.02764
  16        1PZ        -0.11380  -0.18264   0.06795   0.01691   0.01208
  17 5   H  1S          0.51160  -0.56989  -0.24697   0.56703   0.02938
  18 6   H  1S          0.52503  -0.20243  -0.22147  -0.77420   0.02807
  19 7   H  1S          0.03549   0.00757   0.06314   0.00832   0.50766
  20 8   H  1S          0.02427   0.00308   0.04894  -0.00406   0.51660
  21 9   H  1S          0.02292   0.03514  -0.01436   0.00827  -0.01735
  22 10  H  1S         -0.00694   0.00028  -0.02436   0.00215   0.01900
  23 11  H  1S         -0.00980  -0.00518  -0.02134  -0.00465   0.02686
  24 12  N  1S          0.19292   0.01744   0.51047   0.00725   0.11249
  25        1PX        -0.03981   0.12579  -0.09609   0.00042   0.43539
  26        1PY        -0.36890  -0.02538  -0.64921  -0.01134   0.07731
  27        1PZ         0.03217   0.01375   0.06429   0.13362   0.10450
  28 13  O  1S          0.00757   0.01345  -0.00423   0.00412  -0.01190
  29        1PX        -0.01278  -0.02016   0.00795  -0.00663   0.02049
  30        1PY        -0.00133  -0.01045   0.01639  -0.00370  -0.06761
  31        1PZ         0.01696   0.02705  -0.00905   0.00743  -0.00591
  32 14  H  1S         -0.00488  -0.00993   0.00213  -0.00214   0.03336
  33 15  H  1S         -0.04161  -0.00840  -0.17684  -0.01437   0.03830
                           6         7         8         9        10
   6        1PX         0.96991
   7        1PY        -0.00577   1.05087
   8        1PZ        -0.05174  -0.01348   1.13020
   9 3   C  1S          0.28211  -0.35872   0.05568   1.09334
  10        1PX        -0.17797   0.34760  -0.09566  -0.04782   0.83482
  11        1PY         0.41570  -0.40335   0.11452   0.00601  -0.00542
  12        1PZ        -0.11268   0.12987   0.06418   0.10418   0.14741
  13 4   C  1S          0.02048   0.02766   0.00831   0.21155  -0.22283
  14        1PX        -0.07053   0.00287  -0.01651   0.26815  -0.14055
  15        1PY        -0.02605   0.03636  -0.00484   0.37222  -0.33783
  16        1PZ        -0.01612  -0.00370  -0.00300   0.04776  -0.08500
  17 5   H  1S         -0.04642  -0.02198  -0.01714   0.02584  -0.01891
  18 6   H  1S         -0.04688  -0.02615  -0.00805   0.02050  -0.01758
  19 7   H  1S          0.27234   0.45676  -0.64193   0.00824   0.04060
  20 8   H  1S         -0.08508   0.45681   0.69046  -0.02345  -0.01130
  21 9   H  1S         -0.00984   0.02886  -0.00907   0.54065   0.31447
  22 10  H  1S          0.01741  -0.02120   0.00981   0.01642   0.03430
  23 11  H  1S          0.02665  -0.03001   0.00290  -0.01696  -0.01514
  24 12  N  1S         -0.28821  -0.15914  -0.08715  -0.01259   0.01167
  25        1PX        -0.65836  -0.30331  -0.20656  -0.02562  -0.00154
  26        1PY        -0.19247   0.01131  -0.06332   0.04530  -0.02825
  27        1PZ        -0.19239  -0.09638   0.06480  -0.01652   0.01196
  28 13  O  1S         -0.01840   0.00104   0.02191   0.09193   0.23313
  29        1PX         0.01848  -0.01920  -0.00936  -0.30686  -0.39632
  30        1PY        -0.06136   0.06532  -0.01675  -0.00759  -0.01121
  31        1PZ        -0.02312   0.01113   0.02618   0.24629   0.47177
  32 14  H  1S          0.04452  -0.03769  -0.01265   0.03327  -0.00928
  33 15  H  1S         -0.02234   0.07757   0.00272   0.04418  -0.03743
                          11        12        13        14        15
  11        1PY         0.93187
  12        1PZ         0.00110   0.93484
  13 4   C  1S         -0.34745  -0.09398   1.10952
  14        1PX        -0.40077  -0.10023   0.01383   1.03251
  15        1PY        -0.44701  -0.12196  -0.04213  -0.01849   1.07539
  16        1PZ        -0.10716   0.06984   0.00697  -0.03901   0.00294
  17 5   H  1S         -0.02309  -0.01214  -0.01164   0.02086  -0.01112
  18 6   H  1S         -0.02273  -0.00539  -0.01570   0.02174  -0.01432
  19 7   H  1S         -0.00164  -0.01992   0.01516   0.01677   0.02175
  20 8   H  1S         -0.00337   0.02292   0.02618   0.02081   0.03348
  21 9   H  1S          0.01501   0.75954  -0.01697  -0.01062  -0.02639
  22 10  H  1S         -0.00730  -0.02502   0.50550   0.30826  -0.46084
  23 11  H  1S         -0.00623   0.02122   0.51244  -0.04392  -0.44811
  24 12  N  1S          0.05010   0.01192  -0.01024  -0.01125  -0.04611
  25        1PX        -0.02708   0.02159  -0.03334  -0.01310  -0.02204
  26        1PY        -0.00124  -0.01071   0.00146  -0.02484   0.00369
  27        1PZ        -0.00647   0.00827  -0.02201   0.01946  -0.02000
  28 13  O  1S          0.00352  -0.21398  -0.01099  -0.01952   0.00039
  29        1PX        -0.00928   0.40075   0.01667   0.01667   0.01517
  30        1PY         0.17554   0.00764   0.06793   0.05884   0.07003
  31        1PZ         0.00604  -0.30463  -0.00584  -0.02644  -0.00964
  32 14  H  1S          0.00102   0.02157   0.03258   0.04327   0.03813
  33 15  H  1S          0.01267  -0.01993   0.03839  -0.05672   0.05352
                          16        17        18        19        20
  16        1PZ         1.17328
  17 5   H  1S         -0.00612   0.89127
  18 6   H  1S          0.01798  -0.02268   0.88491
  19 7   H  1S          0.00973  -0.01089   0.01097   0.84875
  20 8   H  1S         -0.00024   0.01284  -0.01240  -0.00558   0.86313
  21 9   H  1S         -0.01292  -0.00272  -0.00101   0.04292  -0.01667
  22 10  H  1S         -0.62700   0.04194  -0.02080  -0.00229   0.00576
  23 11  H  1S          0.70351  -0.02242   0.04528   0.00654  -0.00392
  24 12  N  1S         -0.00471  -0.00614  -0.03879  -0.03289  -0.01738
  25        1PX        -0.00621   0.00576  -0.02334   0.00058   0.02072
  26        1PY        -0.00562   0.00276  -0.01286  -0.01050  -0.00675
  27        1PZ         0.00337  -0.09840   0.08740   0.08651  -0.09922
  28 13  O  1S          0.02341  -0.00210  -0.00015  -0.01487   0.02249
  29        1PX        -0.01276   0.00186   0.00142   0.02156  -0.03443
  30        1PY         0.01337   0.00718   0.00543   0.00805   0.00640
  31        1PZ         0.02817  -0.00318  -0.00174  -0.04467   0.03354
  32 14  H  1S         -0.01422   0.00479   0.00223   0.01694  -0.01667
  33 15  H  1S         -0.01471   0.00087   0.04754   0.04586   0.02901
                          21        22        23        24        25
  21 9   H  1S          0.88851
  22 10  H  1S          0.04039   0.82657
  23 11  H  1S         -0.01876   0.02400   0.83307
  24 12  N  1S          0.02005   0.03003   0.02804   1.50245
  25        1PX         0.03890  -0.00062  -0.00223  -0.09664   1.14085
  26        1PY        -0.00066  -0.02645  -0.02444  -0.00264  -0.04229
  27        1PZ         0.00525   0.01424  -0.00223  -0.14229  -0.13703
  28 13  O  1S          0.02633  -0.01531   0.02106   0.00495   0.01479
  29        1PX         0.00000   0.02361  -0.03222  -0.00975  -0.02138
  30        1PY        -0.00050  -0.00674  -0.00469  -0.00618   0.01466
  31        1PZ        -0.08751  -0.04597   0.03160   0.01143   0.02990
  32 14  H  1S         -0.01169   0.01826  -0.01449  -0.00445  -0.01202
  33 15  H  1S         -0.00986  -0.01904  -0.01697   0.52963  -0.39728
                          26        27        28        29        30
  26        1PY         1.08741
  27        1PZ        -0.07040   1.90343
  28 13  O  1S         -0.00030   0.00308   1.80703
  29        1PX         0.00119  -0.01006  -0.03852   1.30724
  30        1PY         0.00485   0.00372  -0.00171  -0.01559   1.97026
  31        1PZ        -0.00101   0.00829  -0.29577   0.04140  -0.00001
  32 14  H  1S          0.00461  -0.00096   0.38273   0.69532   0.01755
  33 15  H  1S          0.61223   0.13538  -0.00291   0.00546  -0.00241
                          31        32        33
  31        1PZ         1.51590
  32 14  H  1S          0.49940   0.67172
  33 15  H  1S         -0.00581   0.00756   0.66914
    Full Mulliken population analysis:
                           1         2         3         4         5
   1 1   C  1S          1.07788
   2        1PX         0.00000   0.99259
   3        1PY         0.00000   0.00000   0.77914
   4        1PZ         0.00000   0.00000   0.00000   1.09863
   5 2   C  1S          0.00000   0.00000   0.00000   0.00000   1.10357
   6        1PX         0.00000   0.00000   0.00000   0.00000   0.00000
   7        1PY         0.00000   0.00000   0.00000   0.00000   0.00000
   8        1PZ         0.00000   0.00000   0.00000   0.00000   0.00000
   9 3   C  1S          0.00000   0.00000   0.00000   0.00000   0.00000
  10        1PX         0.00000   0.00000   0.00000   0.00000   0.00000
  11        1PY         0.00000   0.00000   0.00000   0.00000   0.00000
  12        1PZ         0.00000   0.00000   0.00000   0.00000   0.00000
  13 4   C  1S          0.00000   0.00000   0.00000   0.00000   0.00000
  14        1PX         0.00000   0.00000   0.00000   0.00000   0.00000
  15        1PY         0.00000   0.00000   0.00000   0.00000   0.00000
  16        1PZ         0.00000   0.00000   0.00000   0.00000   0.00000
  17 5   H  1S          0.00000   0.00000   0.00000   0.00000   0.00000
  18 6   H  1S          0.00000   0.00000   0.00000   0.00000   0.00000
  19 7   H  1S          0.00000   0.00000   0.00000   0.00000   0.00000
  20 8   H  1S          0.00000   0.00000   0.00000   0.00000   0.00000
  21 9   H  1S          0.00000   0.00000   0.00000   0.00000   0.00000
  22 10  H  1S          0.00000   0.00000   0.00000   0.00000   0.00000
  23 11  H  1S          0.00000   0.00000   0.00000   0.00000   0.00000
  24 12  N  1S          0.00000   0.00000   0.00000   0.00000   0.00000
  25        1PX         0.00000   0.00000   0.00000   0.00000   0.00000
  26        1PY         0.00000   0.00000   0.00000   0.00000   0.00000
  27        1PZ         0.00000   0.00000   0.00000   0.00000   0.00000
  28 13  O  1S          0.00000   0.00000   0.00000   0.00000   0.00000
  29        1PX         0.00000   0.00000   0.00000   0.00000   0.00000
  30        1PY         0.00000   0.00000   0.00000   0.00000   0.00000
  31        1PZ         0.00000   0.00000   0.00000   0.00000   0.00000
  32 14  H  1S          0.00000   0.00000   0.00000   0.00000   0.00000
  33 15  H  1S          0.00000   0.00000   0.00000   0.00000   0.00000
                           6         7         8         9        10
   6        1PX         0.96991
   7        1PY         0.00000   1.05087
   8        1PZ         0.00000   0.00000   1.13020
   9 3   C  1S          0.00000   0.00000   0.00000   1.09334
  10        1PX         0.00000   0.00000   0.00000   0.00000   0.83482
  11        1PY         0.00000   0.00000   0.00000   0.00000   0.00000
  12        1PZ         0.00000   0.00000   0.00000   0.00000   0.00000
  13 4   C  1S          0.00000   0.00000   0.00000   0.00000   0.00000
  14        1PX         0.00000   0.00000   0.00000   0.00000   0.00000
  15        1PY         0.00000   0.00000   0.00000   0.00000   0.00000
  16        1PZ         0.00000   0.00000   0.00000   0.00000   0.00000
  17 5   H  1S          0.00000   0.00000   0.00000   0.00000   0.00000
  18 6   H  1S          0.00000   0.00000   0.00000   0.00000   0.00000
  19 7   H  1S          0.00000   0.00000   0.00000   0.00000   0.00000
  20 8   H  1S          0.00000   0.00000   0.00000   0.00000   0.00000
  21 9   H  1S          0.00000   0.00000   0.00000   0.00000   0.00000
  22 10  H  1S          0.00000   0.00000   0.00000   0.00000   0.00000
  23 11  H  1S          0.00000   0.00000   0.00000   0.00000   0.00000
  24 12  N  1S          0.00000   0.00000   0.00000   0.00000   0.00000
  25        1PX         0.00000   0.00000   0.00000   0.00000   0.00000
  26        1PY         0.00000   0.00000   0.00000   0.00000   0.00000
  27        1PZ         0.00000   0.00000   0.00000   0.00000   0.00000
  28 13  O  1S          0.00000   0.00000   0.00000   0.00000   0.00000
  29        1PX         0.00000   0.00000   0.00000   0.00000   0.00000
  30        1PY         0.00000   0.00000   0.00000   0.00000   0.00000
  31        1PZ         0.00000   0.00000   0.00000   0.00000   0.00000
  32 14  H  1S          0.00000   0.00000   0.00000   0.00000   0.00000
  33 15  H  1S          0.00000   0.00000   0.00000   0.00000   0.00000
                          11        12        13        14        15
  11        1PY         0.93187
  12        1PZ         0.00000   0.93484
  13 4   C  1S          0.00000   0.00000   1.10952
  14        1PX         0.00000   0.00000   0.00000   1.03251
  15        1PY         0.00000   0.00000   0.00000   0.00000   1.07539
  16        1PZ         0.00000   0.00000   0.00000   0.00000   0.00000
  17 5   H  1S          0.00000   0.00000   0.00000   0.00000   0.00000
  18 6   H  1S          0.00000   0.00000   0.00000   0.00000   0.00000
  19 7   H  1S          0.00000   0.00000   0.00000   0.00000   0.00000
  20 8   H  1S          0.00000   0.00000   0.00000   0.00000   0.00000
  21 9   H  1S          0.00000   0.00000   0.00000   0.00000   0.00000
  22 10  H  1S          0.00000   0.00000   0.00000   0.00000   0.00000
  23 11  H  1S          0.00000   0.00000   0.00000   0.00000   0.00000
  24 12  N  1S          0.00000   0.00000   0.00000   0.00000   0.00000
  25        1PX         0.00000   0.00000   0.00000   0.00000   0.00000
  26        1PY         0.00000   0.00000   0.00000   0.00000   0.00000
  27        1PZ         0.00000   0.00000   0.00000   0.00000   0.00000
  28 13  O  1S          0.00000   0.00000   0.00000   0.00000   0.00000
  29        1PX         0.00000   0.00000   0.00000   0.00000   0.00000
  30        1PY         0.00000   0.00000   0.00000   0.00000   0.00000
  31        1PZ         0.00000   0.00000   0.00000   0.00000   0.00000
  32 14  H  1S          0.00000   0.00000   0.00000   0.00000   0.00000
  33 15  H  1S          0.00000   0.00000   0.00000   0.00000   0.00000
                          16        17        18        19        20
  16        1PZ         1.17328
  17 5   H  1S          0.00000   0.89127
  18 6   H  1S          0.00000   0.00000   0.88491
  19 7   H  1S          0.00000   0.00000   0.00000   0.84875
  20 8   H  1S          0.00000   0.00000   0.00000   0.00000   0.86313
  21 9   H  1S          0.00000   0.00000   0.00000   0.00000   0.00000
  22 10  H  1S          0.00000   0.00000   0.00000   0.00000   0.00000
  23 11  H  1S          0.00000   0.00000   0.00000   0.00000   0.00000
  24 12  N  1S          0.00000   0.00000   0.00000   0.00000   0.00000
  25        1PX         0.00000   0.00000   0.00000   0.00000   0.00000
  26        1PY         0.00000   0.00000   0.00000   0.00000   0.00000
  27        1PZ         0.00000   0.00000   0.00000   0.00000   0.00000
  28 13  O  1S          0.00000   0.00000   0.00000   0.00000   0.00000
  29        1PX         0.00000   0.00000   0.00000   0.00000   0.00000
  30        1PY         0.00000   0.00000   0.00000   0.00000   0.00000
  31        1PZ         0.00000   0.00000   0.00000   0.00000   0.00000
  32 14  H  1S          0.00000   0.00000   0.00000   0.00000   0.00000
  33 15  H  1S          0.00000   0.00000   0.00000   0.00000   0.00000
                          21        22        23        24        25
  21 9   H  1S          0.88851
  22 10  H  1S          0.00000   0.82657
  23 11  H  1S          0.00000   0.00000   0.83307
  24 12  N  1S          0.00000   0.00000   0.00000   1.50245
  25        1PX         0.00000   0.00000   0.00000   0.00000   1.14085
  26        1PY         0.00000   0.00000   0.00000   0.00000   0.00000
  27        1PZ         0.00000   0.00000   0.00000   0.00000   0.00000
  28 13  O  1S          0.00000   0.00000   0.00000   0.00000   0.00000
  29        1PX         0.00000   0.00000   0.00000   0.00000   0.00000
  30        1PY         0.00000   0.00000   0.00000   0.00000   0.00000
  31        1PZ         0.00000   0.00000   0.00000   0.00000   0.00000
  32 14  H  1S          0.00000   0.00000   0.00000   0.00000   0.00000
  33 15  H  1S          0.00000   0.00000   0.00000   0.00000   0.00000
                          26        27        28        29        30
  26        1PY         1.08741
  27        1PZ         0.00000   1.90343
  28 13  O  1S          0.00000   0.00000   1.80703
  29        1PX         0.00000   0.00000   0.00000   1.30724
  30        1PY         0.00000   0.00000   0.00000   0.00000   1.97026
  31        1PZ         0.00000   0.00000   0.00000   0.00000   0.00000
  32 14  H  1S          0.00000   0.00000   0.00000   0.00000   0.00000
  33 15  H  1S          0.00000   0.00000   0.00000   0.00000   0.00000
                          31        32        33
  31        1PZ         1.51590
  32 14  H  1S          0.00000   0.67172
  33 15  H  1S          0.00000   0.00000   0.66914
     Gross orbital populations:
                           1
   1 1   C  1S          1.07788
   2        1PX         0.99259
   3        1PY         0.77914
   4        1PZ         1.09863
   5 2   C  1S          1.10357
   6        1PX         0.96991
   7        1PY         1.05087
   8        1PZ         1.13020
   9 3   C  1S          1.09334
  10        1PX         0.83482
  11        1PY         0.93187
  12        1PZ         0.93484
  13 4   C  1S          1.10952
  14        1PX         1.03251
  15        1PY         1.07539
  16        1PZ         1.17328
  17 5   H  1S          0.89127
  18 6   H  1S          0.88491
  19 7   H  1S          0.84875
  20 8   H  1S          0.86313
  21 9   H  1S          0.88851
  22 10  H  1S          0.82657
  23 11  H  1S          0.83307
  24 12  N  1S          1.50245
  25        1PX         1.14085
  26        1PY         1.08741
  27        1PZ         1.90343
  28 13  O  1S          1.80703
  29        1PX         1.30724
  30        1PY         1.97026
  31        1PZ         1.51590
  32 14  H  1S          0.67172
  33 15  H  1S          0.66914
          Condensed to atoms (all electrons):
               1          2          3          4          5          6
     1  C    3.948240   0.000000   0.000000   0.000000   0.000000   0.000000
     2  C    0.000000   4.254550   0.000000   0.000000   0.000000   0.000000
     3  C    0.000000   0.000000   3.794874   0.000000   0.000000   0.000000
     4  C    0.000000   0.000000   0.000000   4.390708   0.000000   0.000000
     5  H    0.000000   0.000000   0.000000   0.000000   0.891272   0.000000
     6  H    0.000000   0.000000   0.000000   0.000000   0.000000   0.884907
     7  H    0.000000   0.000000   0.000000   0.000000   0.000000   0.000000
     8  H    0.000000   0.000000   0.000000   0.000000   0.000000   0.000000
     9  H    0.000000   0.000000   0.000000   0.000000   0.000000   0.000000
    10  H    0.000000   0.000000   0.000000   0.000000   0.000000   0.000000
    11  H    0.000000   0.000000   0.000000   0.000000   0.000000   0.000000
    12  N    0.000000   0.000000   0.000000   0.000000   0.000000   0.000000
    13  O    0.000000   0.000000   0.000000   0.000000   0.000000   0.000000
    14  H    0.000000   0.000000   0.000000   0.000000   0.000000   0.000000
    15  H    0.000000   0.000000   0.000000   0.000000   0.000000   0.000000
               7          8          9         10         11         12
     1  C    0.000000   0.000000   0.000000   0.000000   0.000000   0.000000
     2  C    0.000000   0.000000   0.000000   0.000000   0.000000   0.000000
     3  C    0.000000   0.000000   0.000000   0.000000   0.000000   0.000000
     4  C    0.000000   0.000000   0.000000   0.000000   0.000000   0.000000
     5  H    0.000000   0.000000   0.000000   0.000000   0.000000   0.000000
     6  H    0.000000   0.000000   0.000000   0.000000   0.000000   0.000000
     7  H    0.848747   0.000000   0.000000   0.000000   0.000000   0.000000
     8  H    0.000000   0.863125   0.000000   0.000000   0.000000   0.000000
     9  H    0.000000   0.000000   0.888507   0.000000   0.000000   0.000000
    10  H    0.000000   0.000000   0.000000   0.826568   0.000000   0.000000
    11  H    0.000000   0.000000   0.000000   0.000000   0.833066   0.000000
    12  N    0.000000   0.000000   0.000000   0.000000   0.000000   5.634139
    13  O    0.000000   0.000000   0.000000   0.000000   0.000000   0.000000
    14  H    0.000000   0.000000   0.000000   0.000000   0.000000   0.000000
    15  H    0.000000   0.000000   0.000000   0.000000   0.000000   0.000000
              13         14         15
     1  C    0.000000   0.000000   0.000000
     2  C    0.000000   0.000000   0.000000
     3  C    0.000000   0.000000   0.000000
     4  C    0.000000   0.000000   0.000000
     5  H    0.000000   0.000000   0.000000
     6  H    0.000000   0.000000   0.000000
     7  H    0.000000   0.000000   0.000000
     8  H    0.000000   0.000000   0.000000
     9  H    0.000000   0.000000   0.000000
    10  H    0.000000   0.000000   0.000000
    11  H    0.000000   0.000000   0.000000
    12  N    0.000000   0.000000   0.000000
    13  O    6.600436   0.000000   0.000000
    14  H    0.000000   0.671722   0.000000
    15  H    0.000000   0.000000   0.669140
 Mulliken charges:
               1
     1  C    0.051760
     2  C   -0.254550
     3  C    0.205126
     4  C   -0.390708
     5  H    0.108728
     6  H    0.115093
     7  H    0.151253
     8  H    0.136875
     9  H    0.111493
    10  H    0.173432
    11  H    0.166934
    12  N   -0.634139
    13  O   -0.600436
    14  H    0.328278
    15  H    0.330860
 Sum of Mulliken charges =   0.00000
 Mulliken charges with hydrogens summed into heavy atoms:
               1
     1  C    0.275582
     2  C    0.033579
     3  C    0.316619
     4  C   -0.050343
    12  N   -0.303278
    13  O   -0.272158
 Charge=              0.0000 electrons
 Dipole moment (field-independent basis, Debye):
    X=              0.2808    Y=             -0.0668    Z=              3.0839  Tot=              3.0973
 N-N= 1.664026684856D+02 E-N=-2.878244861770D+02  KE=-2.166930954431D+01
 Orbital energies and kinetic energies (alpha):
                                 1                 2
   1         O                -1.205186         -1.096526
   2         O                -1.106404         -0.923444
   3         O                -0.998023         -0.961693
   4         O                -0.936649         -0.898054
   5         O                -0.779243         -0.762830
   6         O                -0.748423         -0.693820
   7         O                -0.694596         -0.597658
   8         O                -0.649496         -0.606653
   9         O                -0.582291         -0.548954
  10         O                -0.532285         -0.515698
  11         O                -0.525134         -0.485249
  12         O                -0.508165         -0.439720
  13         O                -0.503541         -0.404194
  14         O                -0.474553         -0.457212
  15         O                -0.455484         -0.438507
  16         O                -0.427873         -0.411056
  17         O                -0.397730         -0.255764
  18         O                -0.303922         -0.337623
  19         V                 0.087493         -0.192648
  20         V                 0.095555         -0.190179
  21         V                 0.120264         -0.198601
  22         V                 0.135324         -0.187492
  23         V                 0.158944         -0.184011
  24         V                 0.176817         -0.159883
  25         V                 0.182243         -0.244782
  26         V                 0.190134         -0.239016
  27         V                 0.198705         -0.197791
  28         V                 0.208383         -0.219457
  29         V                 0.212329         -0.226691
  30         V                 0.214629         -0.216167
  31         V                 0.220068         -0.199137
  32         V                 0.224567         -0.237676
  33         V                 0.277180         -0.143253
 Total kinetic energy from orbitals=-2.166930954431D+01
 D1PCM: PCM CHGder 1st derivatives, ID1Alg=3 FixD1E=F DoIter=F DoCFld=F I1PDM=0.
 Calling FoFJK, ICntrl=      2127 FMM=F ISym2X=0 I1Cent= 0 IOpClX= 0 NMat=1 NMatS=1 NMatT=0.
 ***** Axes restored to original set *****
 -------------------------------------------------------------------
 Center     Atomic                   Forces (Hartrees/Bohr)
 Number     Number              X              Y              Z
 -------------------------------------------------------------------
      1        6          -0.025020532   -0.041657453   -0.013963467
      2        6           0.014982791    0.073772017    0.011195762
      3        6           0.001358569    0.015287373   -0.018542029
      4        6          -0.014873054    0.002966445    0.003095178
      5        1          -0.010158463   -0.000243815    0.003102949
      6        1          -0.005413197    0.000535668   -0.002781840
      7        1           0.002494548    0.010643172   -0.001654595
      8        1           0.003089051    0.011940219    0.002301779
      9        1          -0.000450192    0.000318096    0.001039864
     10        1           0.002056448    0.000497322   -0.005758339
     11        1           0.001752768   -0.000025638    0.006564401
     12        7           0.039779994    0.005452906    0.025554084
     13        8          -0.000624091   -0.006794075    0.008761031
     14        1           0.000341098    0.009414739    0.000421359
     15        1          -0.009315737   -0.082106976   -0.019336137
 -------------------------------------------------------------------
 Cartesian Forces:  Max     0.082106976 RMS     0.020742939

 GradGradGradGradGradGradGradGradGradGradGradGradGradGradGradGradGradGrad
 Berny optimization.
 FormGI is forming the generalized inverse of G from B-inverse, IUseBI=4.
 Internal  Forces:  Max     0.100258256 RMS     0.016695099
 Search for a local minimum.
 Step number   1 out of a maximum of   95
 All quantities printed in internal units (Hartrees-Bohrs-Radians)
 Mixed Optimization -- RFO/linear search
 Second derivative matrix not updated -- first step.
 ITU=  0
     Eigenvalues ---    0.00487   0.00881   0.01295   0.01381   0.02700
     Eigenvalues ---    0.03264   0.04580   0.04844   0.05127   0.05491
     Eigenvalues ---    0.05715   0.05863   0.06279   0.07266   0.07810
     Eigenvalues ---    0.09355   0.09364   0.09668   0.11047   0.12677
     Eigenvalues ---    0.13985   0.16000   0.20846   0.21527   0.28442
     Eigenvalues ---    0.28950   0.29928   0.31536   0.31536   0.31536
     Eigenvalues ---    0.31536   0.31812   0.31812   0.31812   0.38776
     Eigenvalues ---    0.39995   0.40989   0.46940   0.55473
 RFO step:  Lambda=-7.84644460D-02 EMin= 4.86664161D-03
 Linear search not attempted -- first point.
 Maximum step size (   0.300) exceeded in Quadratic search.
    -- Step size scaled by   0.611
 Iteration  1 RMS(Cart)=  0.05274905 RMS(Int)=  0.00447877
 Iteration  2 RMS(Cart)=  0.00353565 RMS(Int)=  0.00073249
 Iteration  3 RMS(Cart)=  0.00002508 RMS(Int)=  0.00073205
 Iteration  4 RMS(Cart)=  0.00000007 RMS(Int)=  0.00073205
 Variable       Old X    -DE/DX   Delta X   Delta X   Delta X     New X
                                 (Linear)    (Quad)   (Total)
    R1        2.88176   0.01518   0.00000   0.02189   0.02202   2.90377
    R2        2.11700   0.00056   0.00000   0.00087   0.00087   2.11787
    R3        2.11700  -0.00101   0.00000  -0.00157  -0.00157   2.11544
    R4        2.70301   0.04243   0.00000   0.05491   0.05475   2.75776
    R5        2.88176   0.01061   0.00000   0.01771   0.01773   2.89949
    R6        2.11700   0.00110   0.00000   0.00171   0.00171   2.11871
    R7        2.11700   0.00101   0.00000   0.00156   0.00156   2.11856
    R8        2.70301   0.10026   0.00000   0.12882   0.12858   2.83159
    R9        2.87722   0.01441   0.00000   0.01927   0.01952   2.89674
   R10        2.11189  -0.00068   0.00000  -0.00105  -0.00105   2.11084
   R11        2.70231   0.00901   0.00000   0.01128   0.01128   2.71359
   R12        2.11189  -0.00573   0.00000  -0.00882  -0.00882   2.10307
   R13        2.11189  -0.00627   0.00000  -0.00967  -0.00967   2.10222
   R14        1.89785   0.01753   0.00000   0.01955   0.01955   1.91740
   R15        1.81414   0.00886   0.00000   0.00855   0.00855   1.82269
    A1        1.95828   0.00035   0.00000  -0.00179  -0.00258   1.95570
    A2        1.95828  -0.00747   0.00000  -0.02148  -0.02076   1.93752
    A3        1.90176   0.00211   0.00000   0.00247   0.00194   1.90370
    A4        1.91198  -0.00180   0.00000  -0.01148  -0.01186   1.90012
    A5        1.86435   0.00555   0.00000   0.02696   0.02724   1.89160
    A6        1.86435   0.00206   0.00000   0.00849   0.00846   1.87282
    A7        1.95794   0.00234   0.00000  -0.00530  -0.00605   1.95189
    A8        1.95794  -0.01081   0.00000  -0.03153  -0.03070   1.92724
    A9        1.90176  -0.00500   0.00000  -0.00512  -0.00566   1.89610
   A10        1.91269  -0.00224   0.00000  -0.01106  -0.01203   1.90065
   A11        1.86435   0.00467   0.00000   0.02198   0.02241   1.88676
   A12        1.86435   0.01232   0.00000   0.03595   0.03578   1.90013
   A13        1.84594   0.00720   0.00000   0.00712   0.00701   1.85294
   A14        1.93220  -0.00105   0.00000   0.00298   0.00304   1.93523
   A15        1.93220  -0.00396   0.00000  -0.00846  -0.00842   1.92378
   A16        1.93810  -0.00333   0.00000  -0.00236  -0.00208   1.93602
   A17        1.93810  -0.00222   0.00000  -0.00693  -0.00717   1.93093
   A18        1.87820   0.00318   0.00000   0.00729   0.00727   1.88547
   A19        1.84594   0.01606   0.00000   0.02187   0.02178   1.86772
   A20        1.93220  -0.00463   0.00000  -0.00450  -0.00441   1.92779
   A21        1.93220  -0.00342   0.00000  -0.00036  -0.00042   1.93178
   A22        1.93810  -0.00547   0.00000  -0.00919  -0.00902   1.92908
   A23        1.93810  -0.00420   0.00000  -0.00264  -0.00287   1.93523
   A24        1.87820   0.00147   0.00000  -0.00511  -0.00517   1.87303
   A25        1.92938  -0.02036   0.00000  -0.02634  -0.02512   1.90427
   A26        2.79272  -0.05400   0.00000  -0.17503  -0.17669   2.61603
   A27        1.49470   0.06594   0.00000   0.17729   0.18013   1.67483
   A28        1.91114   0.00575   0.00000   0.01474   0.01474   1.92587
    D1       -2.06087  -0.00637   0.00000  -0.02769  -0.02726  -2.08814
    D2        2.12142  -0.00695   0.00000  -0.02738  -0.02714   2.09428
    D3        0.04002  -0.00360   0.00000  -0.01786  -0.01761   0.02241
    D4        2.06087   0.00146   0.00000   0.00530   0.00550   2.06637
    D5       -0.04002   0.00088   0.00000   0.00561   0.00562  -0.03439
    D6       -2.12142   0.00423   0.00000   0.01513   0.01515  -2.10627
    D7        0.00000   0.00208   0.00000   0.00623   0.00633   0.00633
    D8       -2.10089   0.00150   0.00000   0.00654   0.00646  -2.09444
    D9        2.10089   0.00485   0.00000   0.01606   0.01598   2.11687
   D10        0.00000  -0.00383   0.00000  -0.01044  -0.01003  -0.01003
   D11       -2.48625  -0.01274   0.00000  -0.05129  -0.04961  -2.53586
   D12        2.11913   0.00104   0.00000   0.00465   0.00441   2.12354
   D13       -0.36712  -0.00787   0.00000  -0.03620  -0.03517  -0.40229
   D14       -2.11913   0.00272   0.00000   0.00892   0.00881  -2.11033
   D15        1.67780  -0.00619   0.00000  -0.03193  -0.03077   1.64703
   D16       -2.06067  -0.00654   0.00000  -0.02680  -0.02612  -2.08679
   D17        2.12163  -0.00631   0.00000  -0.02990  -0.02957   2.09206
   D18        0.04022  -0.00704   0.00000  -0.03547  -0.03515   0.00508
   D19        2.06067   0.00290   0.00000   0.01600   0.01628   2.07694
   D20       -0.04022   0.00314   0.00000   0.01289   0.01283  -0.02740
   D21       -2.12163   0.00240   0.00000   0.00733   0.00725  -2.11438
   D22        0.00000  -0.00257   0.00000  -0.00610  -0.00571  -0.00571
   D23       -2.10089  -0.00233   0.00000  -0.00920  -0.00916  -2.11005
   D24        2.10089  -0.00307   0.00000  -0.01477  -0.01474   2.08616
   D25        0.00000   0.00402   0.00000   0.01039   0.00986   0.00986
   D26        2.93111  -0.02414   0.00000  -0.07817  -0.07529   2.85582
   D27        2.11872   0.00675   0.00000   0.01405   0.01258   2.13130
   D28       -1.23335  -0.02142   0.00000  -0.07452  -0.07258  -1.30593
   D29       -2.11872   0.01257   0.00000   0.02996   0.02904  -2.08968
   D30        0.81239  -0.01560   0.00000  -0.05860  -0.05611   0.75627
   D31        0.00000   0.00029   0.00000  -0.00008  -0.00027  -0.00027
   D32        2.09703   0.00148   0.00000   0.00277   0.00264   2.09968
   D33       -2.09703  -0.00306   0.00000  -0.01150  -0.01159  -2.10862
   D34        2.09703   0.00157   0.00000   0.00655   0.00653   2.10356
   D35       -2.08912   0.00277   0.00000   0.00940   0.00944  -2.07968
   D36        0.00000  -0.00177   0.00000  -0.00488  -0.00479  -0.00479
   D37       -2.09703   0.00190   0.00000   0.00959   0.00957  -2.08746
   D38        0.00000   0.00309   0.00000   0.01243   0.01248   0.01248
   D39        2.08912  -0.00145   0.00000  -0.00184  -0.00175   2.08737
   D40        2.12451  -0.00222   0.00000   0.00144   0.00152   2.12603
   D41       -2.11366   0.00284   0.00000   0.00065   0.00054  -2.11312
   D42        0.01084  -0.00057   0.00000  -0.00176  -0.00172   0.00912
         Item               Value     Threshold  Converged?
 Maximum Force            0.100258     0.000450     NO 
 RMS     Force            0.016695     0.000300     NO 
 Maximum Displacement     0.361368     0.001800     NO 
 RMS     Displacement     0.052715     0.001200     NO 
 Predicted change in Energy=-3.781167D-02
 GradGradGradGradGradGradGradGradGradGradGradGradGradGradGradGradGradGrad

                          Input orientation:                          
 ---------------------------------------------------------------------
 Center     Atomic      Atomic             Coordinates (Angstroms)
 Number     Number       Type             X           Y           Z
 ---------------------------------------------------------------------
      1          6           0       -0.378723   -0.278963    0.029794
      2          6           0        1.586687    1.115151    0.036311
      3          6           0        0.383994    2.067834    0.024905
      4          6           0       -0.864708    1.178745    0.021027
      5          1           0       -0.727594   -0.844280   -0.872838
      6          1           0       -0.728684   -0.813221    0.949164
      7          1           0        2.226858    1.262583    0.944870
      8          1           0        2.215227    1.267625   -0.879410
      9          1           0        0.407001    2.727292   -0.876366
     10          1           0       -1.493119    1.384584    0.916161
     11          1           0       -1.491041    1.378717   -0.876336
     12          7           0        1.080425   -0.295104    0.047299
     13          8           0        0.404221    2.906806    1.190118
     14          1           0        0.424432    3.836401    0.933693
     15          1           0        1.956849   -0.723852   -0.231198
 ---------------------------------------------------------------------
                    Distance matrix (angstroms):
                    1          2          3          4          5
     1  C    0.000000
     2  C    2.409654   0.000000
     3  C    2.467634   1.534342   0.000000
     4  C    1.536610   2.452267   1.532889   0.000000
     5  H    1.120731   3.165725   3.243760   2.215948   0.000000
     6  H    1.119440   3.148470   3.223785   2.201788   1.822267
     7  H    3.162717   1.121175   2.211540   3.227738   4.058536
     8  H    3.153912   1.121095   2.193522   3.210091   3.622206
     9  H    3.236674   2.196278   1.117007   2.195576   3.747458
    10  H    2.189729   3.214333   2.187401   1.112895   2.958780
    11  H    2.192311   3.220994   2.191546   1.112449   2.350442
    12  N    1.459343   1.498413   2.463533   2.440587   2.101708
    13  O    3.479723   2.437114   1.435968   2.441956   4.428028
    14  H    4.289325   3.092140   1.988809   3.091598   5.147765
    15  H    2.391849   1.894866   3.214495   3.412430   2.762686
                    6          7          8          9         10
     6  H    0.000000
     7  H    3.611677   0.000000
     8  H    4.042303   1.824323   0.000000
     9  H    4.142170   2.962119   2.323859   0.000000
    10  H    2.327187   3.722088   4.121843   2.937086   0.000000
    11  H    2.952665   4.141624   3.707934   2.328351   1.792508
    12  N    2.086788   2.132213   2.142121   3.231336   3.193651
    13  O    3.896169   2.466905   3.201501   2.074269   2.447878
    14  H    4.790502   3.142197   3.618412   2.122909   3.112670
    15  H    2.934847   2.324213   2.110194   3.837795   4.202882
                   11         12         13         14         15
    11  H    0.000000
    12  N    3.204250   0.000000
    13  O    3.193322   3.466340   0.000000
    14  H    3.603533   4.276138   0.964526   0.000000
    15  H    4.089615   1.014645   4.196722   4.949867   0.000000
 Stoichiometry    C4H9NO
 Framework group  C1[X(C4H9NO)]
 Deg. of freedom    39
 Full point group                 C1      NOp   1
 Largest Abelian subgroup         C1      NOp   1
 Largest concise Abelian subgroup C1      NOp   1
                         Standard orientation:                         
 ---------------------------------------------------------------------
 Center     Atomic      Atomic             Coordinates (Angstroms)
 Number     Number       Type             X           Y           Z
 ---------------------------------------------------------------------
      1          6           0       -1.438525   -0.734990   -0.180419
      2          6           0       -0.064582    1.213630    0.168285
      3          6           0        0.838834   -0.000291    0.422134
[...]
 ! A22   A(3,4,10)             111.509          -DE/DX =    0.0                 !
 ! A23   A(3,4,11)             111.0081         -DE/DX =    0.0                 !
 ! A24   A(10,4,11)            105.8935         -DE/DX =    0.0                 !
 ! A25   A(1,12,2)             106.2877         -DE/DX =    0.0                 !
 ! A26   A(1,12,15)            109.0755         -DE/DX =    0.0                 !
 ! A27   A(2,12,15)            108.8999         -DE/DX =    0.0                 !
 ! A28   A(3,13,14)            110.4719         -DE/DX =    0.0                 !
 ! D1    D(5,1,4,3)           -142.2674         -DE/DX =    0.0                 !
 ! D2    D(5,1,4,10)            96.3901         -DE/DX =    0.0                 !
 ! D3    D(5,1,4,11)           -21.6892         -DE/DX =    0.0                 !
 ! D4    D(6,1,4,3)             98.2086         -DE/DX =    0.0                 !
 ! D5    D(6,1,4,10)           -23.134          -DE/DX =    0.0                 !
 ! D6    D(6,1,4,11)          -141.2132         -DE/DX =    0.0                 !
 ! D7    D(12,1,4,3)           -19.6856         -DE/DX =    0.0                 !
 ! D8    D(12,1,4,10)         -141.0281         -DE/DX =    0.0                 !
 ! D9    D(12,1,4,11)          100.8926         -DE/DX =    0.0                 !
 ! D10   D(4,1,12,2)            25.4085         -DE/DX =    0.0                 !
 ! D11   D(4,1,12,15)          -91.8564         -DE/DX =    0.0                 !
 ! D12   D(5,1,12,2)           148.7546         -DE/DX =    0.0                 !
 ! D13   D(5,1,12,15)           31.4897         -DE/DX =    0.0                 !
 ! D14   D(6,1,12,2)           -94.2585         -DE/DX =    0.0                 !
 ! D15   D(6,1,12,15)          148.4766         -DE/DX =    0.0                 !
 ! D16   D(7,2,3,4)           -109.2162         -DE/DX =    0.0                 !
 ! D17   D(7,2,3,9)            126.05           -DE/DX =    0.0                 !
 ! D18   D(7,2,3,13)             9.0142         -DE/DX =    0.0                 !
 ! D19   D(8,2,3,4)            132.1913         -DE/DX =    0.0                 !
 ! D20   D(8,2,3,9)              7.4575         -DE/DX =    0.0                 !
 ! D21   D(8,2,3,13)          -109.5783         -DE/DX =    0.0                 !
 ! D22   D(12,2,3,4)             8.8357         -DE/DX =    0.0                 !
 ! D23   D(12,2,3,9)          -115.8982         -DE/DX =    0.0                 !
 ! D24   D(12,2,3,13)          127.066          -DE/DX =    0.0                 !
 ! D25   D(3,2,12,1)           -21.103          -DE/DX =    0.0                 !
 ! D26   D(3,2,12,15)           96.2789         -DE/DX =    0.0                 !
 ! D27   D(7,2,12,1)            97.6234         -DE/DX =    0.0                 !
 ! D28   D(7,2,12,15)         -144.9947         -DE/DX =    0.0                 !
 ! D29   D(8,2,12,1)          -144.8462         -DE/DX =    0.0                 !
 ! D30   D(8,2,12,15)          -27.4643         -DE/DX =    0.0                 !
 ! D31   D(2,3,4,1)              6.5313         -DE/DX =    0.0                 !
 ! D32   D(2,3,4,10)           127.9324         -DE/DX =    0.0                 !
 ! D33   D(2,3,4,11)          -114.2506         -DE/DX =    0.0                 !
 ! D34   D(9,3,4,1)            131.6681         -DE/DX =    0.0                 !
 ! D35   D(9,3,4,10)          -106.9308         -DE/DX =    0.0                 !
 ! D36   D(9,3,4,11)            10.8862         -DE/DX =    0.0                 !
 ! D37   D(13,3,4,1)          -107.2632         -DE/DX =    0.0                 !
 ! D38   D(13,3,4,10)           14.1379         -DE/DX =    0.0                 !
 ! D39   D(13,3,4,11)          131.9549         -DE/DX =    0.0                 !
 ! D40   D(2,3,13,14)         -175.6658         -DE/DX =    0.0                 !
 ! D41   D(4,3,13,14)          -60.8344         -DE/DX =    0.0                 !
 ! D42   D(9,3,13,14)           63.2827         -DE/DX =    0.0                 !
 --------------------------------------------------------------------------------
 GradGradGradGradGradGradGradGradGradGradGradGradGradGradGradGradGradGrad

 1|1|UNPC-DESKTOP-KC5UJLK|Freq|RPM6|ZDO|C4H9N1O1|23122|15-Mar-2022|0||#
 N Geom=AllCheck Guess=TCheck SCRF=Check GenChk RPM6/ZDO Freq||Energy C
 alculation(GC)||0,1|C,-0.304545274,-0.2374610501,0.2221749031|C,1.6897
 69855,1.0916174741,0.0829121768|C,0.4955947825,2.0656289238,-0.0615771
 164|C,-0.7766759726,1.1984857912,-0.0795638382|H,-0.860725437,-0.99395
 43351,-0.3623438121|H,-0.4529667155,-0.4836411886,1.294432153|H,2.1345
 069408,1.1939295751,1.0978728226|H,2.4950020484,1.3065177365,-0.643573
 9532|H,0.5738007713,2.7320978167,-0.9430571304|H,-1.5149083491,1.54776
 75782,0.6625889225|H,-1.2819941385,1.2573390074,-1.0595085229|N,1.1672
 835272,-0.3041495913,-0.0702233255|O,0.5513488887,2.8964981971,1.11759
 79278|H,-0.2170080665,3.505766366,1.1446498491|H,1.3033428495,-0.60612
 26109,-1.0451861764||Version=IA32W-G09RevD.01|State=1-A|HF=-0.0905595|
 RMSD=1.057e-009|RMSF=1.851e-005|ZeroPoint=0.1209794|Thermal=0.1272327|
 Dipole=-1.0229255,0.4281242,-1.1568843|DipoleDeriv=0.1715132,-0.296411
 2,-0.0210881,-0.1552963,-0.0631261,-0.0409086,-0.1559147,-0.1009416,-0
 .1937423,-0.3720749,0.0397117,0.0335235,-0.1009174,0.0766161,-0.036802
 2,0.1087877,0.0678531,-0.4037319,0.3964007,0.0917871,-0.0393244,0.1040
 095,0.6178645,0.469476,0.0039292,0.5128842,0.6670337,-0.7134528,-0.001
 1319,-0.0315777,0.1198271,-0.5173926,-0.066366,0.0270559,-0.0074483,-0
 .6200269,0.1148025,0.049876,0.0266872,0.0529431,0.1742818,0.029584,0.0
 379488,0.0326209,0.1537636,0.0908221,0.0407027,0.0086168,0.0385129,0.1
 223743,-0.0194254,-0.0217407,-0.0359429,0.2078727,0.1855215,0.0156749,
 0.019309,0.0322079,0.1005546,0.0039317,0.0722513,0.0024166,0.2440283,0
 .220876,0.0082512,-0.0425792,0.0126912,0.0900356,-0.019483,-0.053346,-
 0.0195119,0.1920589,0.0354228,0.0037783,-0.0150611,-0.0054207,0.062001
 5,-0.0873439,-0.0181731,-0.1224207,0.0977235,0.2348927,-0.0266298,-0.0
 232847,-0.0292671,0.155547,0.009162,-0.0512484,0.0135055,0.2197267,0.2
 142043,-0.0182574,0.0278198,-0.0245984,0.1335801,-0.0023813,0.0504233,
 0.0079976,0.2449903,-0.5150368,0.1827661,0.0278887,0.147764,-0.6270465
 ,-0.0346638,0.011814,0.0049304,-0.4277166,-0.6111913,0.1341759,0.22993
 37,-0.0705535,-1.0617083,-0.3533656,0.0461192,-0.3034676,-0.8883913,0.
 3760723,-0.1237876,-0.1414494,-0.0349702,0.480266,0.0389793,-0.075932,
 -0.0407199,0.2683657,0.1712236,-0.1005076,-0.0594153,-0.0869363,0.2561
 443,0.1096038,0.0180219,-0.011758,0.238044|Polar=43.0461405,0.2941129,
 43.703961,-0.9900896,5.6414805,38.0525598|HyperPolar=-46.7327641,30.44
 10429,-38.4477573,48.7462855,-1.7671642,-7.5101771,-29.8976555,-3.9354
 775,-20.3990056,-49.1367278|PG=C01 [X(C4H9N1O1)]|NImag=0||0.45892162,0
 .03378638,0.46594235,-0.01533113,0.00209210,0.42520460,-0.03021315,-0.
 03712395,0.00122072,0.47856179,-0.01979859,-0.00621726,0.00672220,0.02
 870347,0.44852657,-0.00203342,0.00602081,0.00201354,-0.01443648,0.0235
 1242,0.42233687,0.00751975,-0.01713377,0.00267796,-0.12828700,0.050250
 85,-0.01214602,0.44429206,-0.01758651,-0.03902293,0.00381587,0.0575932
 1,-0.08992164,0.01169383,-0.00766331,0.48258259,0.00541159,0.00464538,
 0.00545879,-0.01568758,0.01228208,-0.06229815,0.00434036,-0.01194918,0
 .43771337,-0.06156623,0.03763288,-0.00973729,-0.04355646,-0.00000496,-
 0.00141059,-0.14207196,-0.05875514,0.00921046,0.47085686,0.02469462,-0
 .16541558,0.02536522,0.00353343,0.01019651,-0.00096272,-0.04946675,-0.
 09123666,0.00707103,-0.01795564,0.43197688,-0.00708259,0.02544310,-0.0
 6448768,-0.00477695,-0.00064363,0.00677220,0.00505454,0.00402289,-0.05
 932284,0.00742611,-0.00024732,0.42154989,-0.07553586,-0.05619232,-0.04
 361130,-0.00369775,0.00137854,-0.00033224,-0.00095560,0.00090348,-0.00
 046669,0.00554223,0.00319031,0.00204901,0.10568631,-0.05874576,-0.1164
 4235,-0.06396612,0.00064847,-0.00026218,-0.00023762,0.00043092,-0.0022
 2808,0.00020767,-0.00699667,-0.03267603,-0.01112058,0.07531919,0.14809
 488,-0.04973843,-0.06876292,-0.08675574,0.00149555,0.00006977,0.000277
 78,0.00004377,0.00026566,-0.00020346,0.00065770,-0.00036447,0.00412222
 ,0.05685895,0.07875765,0.09737651,-0.03510012,-0.00566831,0.01527013,-
 0.00139067,-0.00106068,0.00095974,-0.00053541,-0.00007462,-0.00024945,
 0.00290417,0.00559133,-0.00661592,0.00306380,-0.00088587,-0.00976428,0
 .05399951,-0.00642304,-0.04134552,0.03424017,-0.00030417,-0.00021181,-
 0.00038478,0.00050609,-0.00068148,0.00019742,0.00363967,-0.01823059,0.
 02740533,-0.00133347,0.00318259,-0.01350279,0.00405539,0.05499909,0.02
 001533,0.03748032,-0.19857009,-0.00006375,0.00021568,-0.00015991,0.000
 29807,0.00054544,0.00022421,-0.00256958,0.01355278,-0.01063963,-0.0034
 4441,-0.00326707,-0.02072617,-0.03352122,-0.05081167,0.24335841,-0.000
 97999,-0.00042838,0.00000164,-0.05970505,-0.00664080,-0.05976866,-0.01
 864520,0.01084408,-0.02309857,-0.00025289,0.00018226,0.00018137,-0.000
 06411,-0.00006539,-0.00000134,-0.00005206,-0.00011033,0.00011641,0.080
 49319,-0.00155938,-0.00083884,-0.00086932,-0.00339284,-0.03290746,-0.0
 0770678,0.01288856,-0.00038118,0.01556461,0.00058977,-0.00097330,-0.00
 012678,-0.00033228,0.00002542,0.00011863,0.00009840,-0.00007501,0.0000
 1033,0.00755587,0.05193323,-0.00004881,0.00021950,0.00007803,-0.062585
 67,-0.01253532,-0.17972958,-0.01349728,0.00761068,-0.00551631,0.000647
 47,-0.00025314,-0.00003794,-0.00000935,-0.00013882,-0.00008453,-0.0000
 2157,-0.00008513,0.00011018,0.08550588,0.01930043,0.21719550,-0.000351
 87,-0.00083224,0.00050016,-0.12411556,-0.02328652,0.08277748,-0.026752
 61,0.00808127,0.01530177,-0.00080224,0.00011462,-0.00053908,-0.0000636
 6,-0.00006773,-0.00004700,-0.00008573,-0.00002957,0.00012842,0.0050549
 7,0.00006146,0.00041365,0.16163149,0.00024731,-0.00391727,0.00054770,-
 0.02054315,-0.03990574,0.01879506,0.01457139,0.00167635,-0.00875843,0.
 00166491,-0.00069775,0.00039982,-0.00040659,0.00014270,0.00013153,-0.0
 0028854,0.00008625,-0.00001443,-0.00034590,0.00389952,0.00104306,0.032
 73295,0.05810308,-0.00050660,-0.00096738,0.00023339,0.08959144,0.02263
 098,-0.11306985,0.00515162,-0.00194636,0.00218864,-0.00073764,0.000016
 89,-0.00012463,-0.00008844,0.00010397,0.00011262,-0.00008543,0.0000384
 0,-0.00009348,0.01179947,0.00274375,-0.02335705,-0.10613485,-0.0273232
 7,0.12968431,-0.00216164,-0.00085357,0.00024231,-0.00352140,0.01679343
 ,-0.01388371,-0.03435348,-0.00629108,0.01017744,-0.00905552,-0.0207294
 3,0.01480929,0.00019439,-0.00017154,0.00003206,0.00006913,-0.00005576,
 -0.00003202,-0.00130959,0.00100057,-0.00005061,-0.00008225,0.00053232,
 -0.00046239,0.04691928,-0.00030987,-0.00070181,0.00011895,0.00988479,-
 0.01531221,0.01560896,-0.00707550,-0.09811564,0.08817956,-0.01280227,-
 0.01321670,0.01281040,0.00001735,-0.00009845,-0.00000642,-0.00000351,0
 .00002821,0.00002580,0.00114001,-0.00089748,0.00011613,0.00033722,0.00
 004827,0.00006773,0.00963353,0.12497839,-0.00028276,0.00009978,-0.0000
 1870,-0.00415684,0.01041761,-0.00250513,0.01067727,0.08335734,-0.13544
 564,0.00421051,0.00772974,-0.00080230,0.00004949,0.00008834,0.00006137
 ,0.00005634,-0.00000207,-0.00011458,-0.00013579,-0.00011592,-0.0003701
 7,-0.00029467,-0.00015505,0.00040989,-0.01149111,-0.09874712,0.1849603
 9,-0.00816155,0.01418965,0.00610295,-0.00100618,0.00004664,-0.00038798
 ,-0.02974726,-0.00455445,0.01668733,-0.11125147,0.03684994,0.08020396,
 0.00000844,0.00051025,0.00006769,0.00015006,0.00034428,-0.00032686,-0.
 00010691,0.00000484,-0.00010098,-0.00011355,0.00007515,0.00007775,-0.0
 0087158,-0.00077952,0.00026921,0.14531085,0.02101241,-0.01915626,-0.01
 390547,-0.00116550,-0.00110900,-0.00019250,-0.01219693,0.00506355,0.00
 900575,0.03605326,-0.05114326,-0.03796873,0.00016794,-0.00129890,0.000
 08798,0.00044274,-0.00010981,0.00015780,-0.00003953,0.00011365,0.00004
 402,-0.00001727,0.00003078,-0.00002290,-0.00077494,-0.00065355,-0.0001
 0986,-0.04655915,0.06813557,0.00214680,-0.00363220,0.00397261,-0.00043
 995,-0.00016287,-0.00000076,0.00861516,0.00262876,0.00137997,0.0836680
 8,-0.03942725,-0.11657612,-0.00010752,0.00004476,-0.00017584,-0.000363
 52,0.00052537,0.00053717,0.00004337,0.00003509,0.00009113,0.00007672,0
 .00004441,-0.00005492,-0.00013601,0.00006480,-0.00019536,-0.10213880,0
 .04615605,0.13545272,-0.00408151,0.00907262,-0.01151519,-0.00114732,0.
 00001151,0.00032541,-0.02050286,-0.00975020,-0.02206376,-0.06835199,0.
 00429998,-0.07060245,0.00051124,0.00002925,0.00006920,-0.00000655,0.00
 071051,-0.00025496,-0.00000041,-0.00007117,-0.00008703,-0.00020478,0.0
 0010195,0.00001816,-0.00008887,-0.00046856,0.00002453,0.00568868,0.000
 69520,0.00971950,0.09013754,0.01421845,-0.01176203,0.02368944,-0.00072
 671,-0.00056566,0.00024890,-0.01193984,0.00005958,-0.01190081,0.003263
 02,-0.03323575,0.00764069,0.00007950,-0.00036256,0.00057611,0.00073493
 ,-0.00234666,0.00065099,0.00000467,0.00000303,0.00002690,-0.00003827,0
 .00010987,-0.00003382,-0.00052342,-0.00015261,-0.00029142,-0.00070329,
 0.00327640,-0.00671346,-0.00349098,0.04714819,-0.00922549,0.01188115,-
 0.00892392,0.00040279,0.00037459,-0.00022982,-0.01114682,-0.00557312,-
 0.00403551,-0.07411654,0.00819052,-0.17661020,0.00021764,0.00022931,0.
 00050173,-0.00019771,0.00048386,-0.00025820,-0.00006867,-0.00003128,-0
 .00014738,-0.00006542,-0.00006785,0.00009288,0.00038962,0.00001792,0.0
 0067136,-0.00125500,-0.00301713,-0.02401264,0.09438354,-0.01293102,0.2
 1165973,-0.23003947,0.01504481,0.01442340,-0.07967307,-0.06214184,0.01
 076931,0.00564908,0.01156445,0.00118954,-0.03692476,0.03050650,0.00123
 730,-0.03489849,-0.00946526,-0.00033601,-0.01830955,-0.00101448,0.0187
 6441,-0.00397553,-0.01501853,-0.00944655,-0.01335801,-0.02844813,0.002
 33347,-0.00070773,-0.00002193,0.00007425,-0.00026903,0.00214595,-0.001
 26927,-0.00000518,0.00066472,0.00057443,0.45775291,0.00612180,-0.06118
 507,-0.01150860,-0.05262615,-0.22175582,-0.00337863,0.01180101,-0.0514
 2950,-0.00120446,0.03105322,-0.01307667,-0.00374651,-0.02237351,0.0012
 4110,0.00204065,-0.00307915,0.00404692,0.00173133,-0.01069122,-0.01520
 625,-0.01512711,-0.01702534,-0.01881372,0.00474654,0.00205506,-0.00054
 392,-0.00016719,-0.00010440,-0.00234342,0.00078298,-0.00023867,-0.0005
 3112,-0.00039441,0.05692920,0.43037928,0.04599776,-0.01345474,-0.06907
 138,0.00050228,-0.03356064,-0.06566201,-0.00099954,-0.00028304,0.00474
 910,-0.00066988,-0.00055390,0.00544143,-0.01223086,-0.00107020,0.00495
 937,0.03375984,0.00205508,-0.01316358,-0.01483463,-0.02783204,-0.00727
 944,0.00896509,0.01612018,0.00306789,-0.00027594,-0.00013352,0.0000458
 9,0.00002684,0.00020708,0.00007223,0.00010845,0.00010146,0.00011968,-0
 .07145639,0.09197356,0.36475067,-0.00136294,-0.00044802,-0.00002962,-0
 .00501390,0.02063565,0.02127847,-0.05251728,0.00745224,-0.00859715,-0.
 00488850,-0.01974946,-0.01963212,0.00016338,-0.00020812,0.00000129,0.0
 0000397,-0.00006386,0.00004842,-0.00002546,0.00007097,-0.00011974,-0.0
 0075010,0.00112958,-0.00057422,0.00491266,0.00155037,0.00114463,0.0004
 1977,0.00042438,0.00024842,-0.00164060,-0.00123398,0.00007910,-0.00146
 546,0.00331971,0.00013154,0.19177267,-0.00190266,-0.00062748,-0.000856
 35,0.01738354,-0.02489585,-0.02246931,-0.00592787,-0.08501875,-0.09088
 909,-0.01790879,-0.02182160,-0.02409249,0.00043505,0.00010156,0.000252
 76,0.00018840,0.00018239,-0.00056506,0.00029177,-0.00078432,0.00021082
 ,0.00012323,-0.00097102,0.00055268,-0.00097374,0.00265872,-0.00275497,
 0.00171500,0.00019276,-0.00023403,-0.00105317,-0.00168402,0.00110770,0
 .00205660,-0.00348254,-0.00000318,-0.09542737,0.21446229,-0.00177697,0
 .00048804,-0.00026242,0.01293674,-0.01569365,0.00004206,-0.02882127,-0
 .06721136,-0.17425246,-0.01522661,-0.01974772,-0.00983156,0.00032381,0
 .00002675,0.00014475,0.00009626,0.00008072,-0.00023612,0.00048563,-0.0
 0067649,-0.00055985,-0.00081190,0.00002523,0.00018332,0.00042157,-0.01
 699711,-0.04472512,0.00106668,-0.00007817,-0.00056608,-0.00039666,-0.0
 0113333,0.00122453,0.00077183,0.00013011,-0.00016075,0.02860471,0.1425
 7891,0.25421897,-0.00015692,-0.00022110,-0.00010681,0.00060640,0.00035
 269,-0.00087703,-0.00246251,0.00694791,0.00752958,-0.00021011,-0.00102
 880,-0.00188734,0.00004563,0.00002044,0.00004784,0.00002586,0.00002920
 ,-0.00009050,-0.00017311,-0.00005704,-0.00027689,-0.00012383,-0.000165
 03,0.00012628,0.00002933,-0.00118739,-0.00002187,0.00002359,-0.0002261
 3,-0.00006200,-0.00013232,-0.00025996,0.00010929,0.00013605,-0.0007452
 7,0.00007081,-0.12988446,0.10144441,0.00254012,0.13237707,0.00066229,-
 0.00015996,0.00012764,0.00050481,-0.00219649,-0.00270763,0.02164835,-0
 .02964310,-0.01144252,0.00041732,-0.00041728,0.00025641,-0.00012737,-0
 .00003126,-0.00008632,-0.00007163,-0.00000942,0.00015806,0.00001146,-0
 .00002249,-0.00004969,0.00036703,-0.00018012,-0.00016617,0.00046979,0.
 00201245,0.00052494,-0.00121117,-0.00098647,-0.00006913,-0.00008484,0.
 00009730,-0.00038364,-0.00016502,0.00014940,-0.00019311,0.08248063,-0.
 07868745,-0.02209905,-0.10498648,0.11025568,0.00026504,0.00003676,0.00
 000230,0.00008170,-0.00295841,-0.00357976,0.02947998,-0.02703381,-0.01
 038032,-0.00082912,-0.00054807,0.00038770,-0.00000918,0.00001966,0.000
 00433,0.00001544,0.00000274,-0.00000290,-0.00029682,-0.00006699,-0.000
 16703,0.00023814,-0.00028834,0.00003867,0.00036438,-0.00113720,-0.0020
 2161,-0.00032414,-0.00045299,0.00017221,0.00018695,0.00007495,-0.00009
 444,0.00044727,-0.00061683,-0.00007674,-0.02236262,-0.00316949,-0.0253
 9503,-0.00718566,0.03616890,0.04105423,-0.01672953,0.00917528,0.039892
 13,0.00215932,-0.00523922,-0.01083416,-0.00062978,0.00128916,0.0003146
 6,-0.00037110,-0.00003298,0.00017479,-0.00000002,-0.00035205,0.0006131
 0,-0.00473661,0.00004942,0.00093216,-0.00025791,-0.00183919,-0.0003224
 7,0.00011776,-0.00085840,-0.00050870,0.00002729,0.00008531,-0.00012323
 ,-0.00007385,0.00003759,-0.00000092,-0.00017514,-0.00004902,-0.0000807
 9,-0.04391235,-0.00439632,0.01090478,0.00027642,-0.00044490,-0.0002138
 3,-0.00010054,0.00008516,-0.00007113,0.06440602,0.00558252,0.00085013,
 -0.00561359,-0.00236952,-0.02346200,-0.03784013,-0.00069293,-0.0017037
 4,-0.00100932,0.00010971,-0.00003222,-0.00003246,-0.00072573,0.0006116
 8,0.00042216,0.00002108,0.00048486,0.00012969,-0.00170843,-0.00388855,
 -0.00038241,-0.00052081,0.00038874,-0.00044090,-0.00011128,-0.00003366
 ,0.00012583,0.00017609,-0.00001216,-0.00004334,0.00023659,-0.00005396,
 0.00011355,-0.00263735,-0.04744874,-0.03337293,0.00006688,0.00037596,0
 .00030729,0.00008295,-0.00018106,-0.00003080,0.00249023,0.07410492,0.0
 1218944,-0.00158963,-0.00887350,-0.00408416,-0.01067081,-0.00420778,0.
 00027164,0.00005573,-0.00025982,-0.00052292,0.00017843,0.00015969,0.00
 080108,0.00032235,0.00038498,0.00066134,-0.00024262,-0.00026527,0.0000
 7083,-0.00034730,-0.00022559,-0.00050858,-0.00049956,0.00068846,-0.000
 10490,0.00001116,0.00004969,0.00003130,0.00008898,-0.00009641,0.000084
 36,-0.00000546,0.00004232,0.03192326,-0.06526143,-0.22779231,-0.000220
 50,0.00033124,0.00017609,0.00008404,-0.00003844,0.00005853,-0.04067633
 ,0.07766748,0.24016098||-0.00000484,0.00000465,0.00002553,-0.00000874,
 -0.00001197,0.00002283,0.00001776,-0.00001605,-0.00003388,-0.00000167,
 -0.00000396,-0.00001680,-0.00000368,-0.00000279,0.00001488,-0.00001716
 ,0.00002256,0.00000970,-0.00001056,0.00000817,0.00001019,0.00001328,-0
 .00001961,0.00001849,0.00001276,-0.00001634,-0.00001761,-0.00000421,0.
 00001731,-0.00002566,0.00001363,-0.00001090,-0.00001807,-0.00000513,0.
 00000565,0.00003022,-0.00002697,0.00004294,-0.00001327,0.00002045,0.00
 000188,-0.00003957,0.00000509,-0.00002155,0.00003301|||@


 IN-LAWS ARE LIKE SEEDS. YOU DON'T NEED THEM
 BUT THEY COME WITH THE TOMATO.
 Job cpu time:       0 days  0 hours  0 minutes 18.0 seconds.
 File lengths (MBytes):  RWF=     55 Int=      0 D2E=      0 Chk=      6 Scr=      1
 Normal termination of Gaussian 09 at Tue Mar 15 10:56:20 2022.
