 Entering Link 1 = C:\G09W\l1.exe PID=      6748.
  
 Copyright (c) 1988,1990,1992,1993,1995,1998,2003,2009,2013,
            Gaussian, Inc.  All Rights Reserved.
  
 This is part of the Gaussian(R) 09 program.  It is based on
 the Gaussian(R) 03 system (copyright 2003, Gaussian, Inc.),
 the Gaussian(R) 98 system (copyright 1998, Gaussian, Inc.),
 the Gaussian(R) 94 system (copyright 1995, Gaussian, Inc.),
 the Gaussian 92(TM) system (copyright 1992, Gaussian, Inc.),
 the Gaussian 90(TM) system (copyright 1990, Gaussian, Inc.),
 the Gaussian 88(TM) system (copyright 1988, Gaussian, Inc.),
 the Gaussian 86(TM) system (copyright 1986, Carnegie Mellon
 University), and the Gaussian 82(TM) system (copyright 1983,
 Carnegie Mellon University). Gaussian is a federally registered
 trademark of Gaussian, Inc.
  
 This software contains proprietary and confidential information,
 including trade secrets, belonging to Gaussian, Inc.
  
 This software is provided under written license and may be
 used, copied, transmitted, or stored only in accord with that
 written license.
  
 The following legend is applicable only to US Government
 contracts under FAR:
  
                    RESTRICTED RIGHTS LEGEND
  
 Use, reproduction and disclosure by the US Government is
 subject to restrictions as set forth in subparagraphs (a)
 and (c) of the Commercial Computer Software - Restricted
 Rights clause in FAR 52.227-19.
  
 Gaussian, Inc.
 340 Quinnipiac St., Bldg. 40, Wallingford CT 06492
  
  
 ---------------------------------------------------------------
 Warning -- This program may not be used in any manner that
 competes with the business of Gaussian, Inc. or will provide
 assistance to any competitor of Gaussian, Inc.  The licensee
 of this program is prohibited from giving any competitor of
 Gaussian, Inc. access to this program.  By using this program,
 the user acknowledges that Gaussian, Inc. is engaged in the
 business of creating and licensing software in the field of
 computational chemistry and represents and warrants to the
 licensee that it is not a competitor of Gaussian, Inc. and that
 it will not use this program in any manner prohibited above.
 ---------------------------------------------------------------
  

 Cite this work as:
 Gaussian 09, Revision D.01,
 M. J. Frisch, G. W. Trucks, H. B. Schlegel, G. E. Scuseria, 
 M. A. Robb, J. R. Cheeseman, G. Scalmani, V. Barone, B. Mennucci, 
 G. A. Petersson, H. Nakatsuji, M. Caricato, X. Li, H. P. Hratchian, 
 A. F. Izmaylov, J. Bloino, G. Zheng, J. L. Sonnenberg, M. Hada, 
 M. Ehara, K. Toyota, R. Fukuda, J. Hasegawa, M. Ishida, T. Nakajima, 
 Y. Honda, O. Kitao, H. Nakai, T. Vreven, J. A. Montgomery, Jr., 
 J. E. Peralta, F. Ogliaro, M. Bearpark, J. J. Heyd, E. Brothers, 
 K. N. Kudin, V. N. Staroverov, T. Keith, R. Kobayashi, J. Normand, 
 K. Raghavachari, A. Rendell, J. C. Burant, S. S. Iyengar, J. Tomasi, 
 M. Cossi, N. Rega, J. M. Millam, M. Klene, J. E. Knox, J. B. Cross, 
 V. Bakken, C. Adamo, J. Jaramillo, R. Gomperts, R. E. Stratmann, 
 O. Yazyev, A. J. Austin, R. Cammi, C. Pomelli, J. W. Ochterski, 
 R. L. Martin, K. Morokuma, V. G. Zakrzewski, G. A. Voth, 
 P. Salvador, J. J. Dannenberg, S. Dapprich, A. D. Daniels, 
 O. Farkas, J. B. Foresman, J. V. Ortiz, J. Cioslowski, 
 and D. J. Fox, Gaussian, Inc., Wallingford CT, 2013.
 
 ******************************************
 Gaussian 09:  IA32W-G09RevD.01 24-Apr-2013
                15-Mar-2022 
 ******************************************
 %nprocshared=4
 Will use up to    4 processors via shared memory.
 %mem=1GB
 %chk=D:\mindmap\gaussian\calculate\opt_freq\qm2\1924-2-1.chk
 -----------------------------------------
 # opt freq pm6 pop=full geom=connectivity
 -----------------------------------------
 1/14=-1,18=20,19=15,26=1,38=1,57=2/1,3;
 2/9=110,12=2,17=6,18=5,40=1/2;
 3/5=2,16=1,25=1,41=3900000,71=1/1,2,3;
 4/35=1/1;
 5/5=2,35=1,38=5/2;
 6/7=3,28=1/1;
 7//1,2,3,16;
 1/14=-1,18=20,19=15,26=1/3(2);
 2/9=110/2;
 99//99;
 2/9=110/2;
 3/5=2,16=1,25=1,41=3900000,71=1,135=20/1,2,3;
 4/5=5,16=3,35=1/1;
 5/5=2,35=1,38=5/2;
 7//1,2,3,16;
 1/14=-1,18=20,19=15,26=1/3(-5);
 2/9=110/2;
 6/7=3,19=2,28=1/1;
 99/9=1/99;
 ----------------------
 Energy Calculation(GC)
 ----------------------
 Symbolic Z-matrix:
 Charge = -1 Multiplicity = 1
 C                    -0.37672  -0.26043   0.02906 
 C                     1.55564   1.07896   0.02906 
 C                     0.37908   2.04912   0.02906 
 C                    -0.87227   1.18177   0.02906 
 H                    -0.70088  -0.81941  -0.88607 
 H                    -0.70088  -0.81941   0.9442 
 H                     2.19248   1.18646   0.94442 
 H                     2.19248   1.18646  -0.8863 
 H                     0.41047   2.70831  -0.87284 
 H                    -1.50055   1.38372   0.93097 
 H                    -1.50055   1.38372  -0.87284 
 N                     1.05365  -0.26043   0.02906 
 O                     0.41925   2.8926    1.18311 
 H                     1.99745  -0.53262  -0.18016 
 

 GradGradGradGradGradGradGradGradGradGradGradGradGradGradGradGradGradGrad
 Berny optimization.
 Initialization pass.
                           ----------------------------
                           !    Initial Parameters    !
                           ! (Angstroms and Degrees)  !
 --------------------------                            --------------------------
 ! Name  Definition              Value          Derivative Info.                !
 --------------------------------------------------------------------------------
 ! R1    R(1,4)                  1.525          estimate D2E/DX2                !
 ! R2    R(1,5)                  1.1203         estimate D2E/DX2                !
 ! R3    R(1,6)                  1.1203         estimate D2E/DX2                !
 ! R4    R(1,12)                 1.4304         estimate D2E/DX2                !
 ! R5    R(2,3)                  1.525          estimate D2E/DX2                !
 ! R6    R(2,7)                  1.1203         estimate D2E/DX2                !
 ! R7    R(2,8)                  1.1203         estimate D2E/DX2                !
 ! R8    R(2,12)                 1.4304         estimate D2E/DX2                !
 ! R9    R(3,4)                  1.5226         estimate D2E/DX2                !
 ! R10   R(3,9)                  1.1176         estimate D2E/DX2                !
 ! R11   R(3,13)                 1.43           estimate D2E/DX2                !
 ! R12   R(4,10)                 1.1176         estimate D2E/DX2                !
 ! R13   R(4,11)                 1.1176         estimate D2E/DX2                !
 ! R14   R(12,14)                1.0043         estimate D2E/DX2                !
 ! A1    A(4,1,5)              112.2011         estimate D2E/DX2                !
 ! A2    A(4,1,6)              112.2012         estimate D2E/DX2                !
 ! A3    A(4,1,12)             108.9629         estimate D2E/DX2                !
 ! A4    A(5,1,6)              109.5484         estimate D2E/DX2                !
 ! A5    A(5,1,12)             106.8196         estimate D2E/DX2                !
 ! A6    A(6,1,12)             106.8196         estimate D2E/DX2                !
 ! A7    A(3,2,7)              112.1817         estimate D2E/DX2                !
 ! A8    A(3,2,8)              112.1816         estimate D2E/DX2                !
 ! A9    A(3,2,12)             108.9629         estimate D2E/DX2                !
 ! A10   A(7,2,8)              109.5889         estimate D2E/DX2                !
 ! A11   A(7,2,12)             106.8196         estimate D2E/DX2                !
 ! A12   A(8,2,12)             106.8196         estimate D2E/DX2                !
 ! A13   A(2,3,4)              105.7643         estimate D2E/DX2                !
 ! A14   A(2,3,9)              110.7068         estimate D2E/DX2                !
 ! A15   A(2,3,13)             110.7069         estimate D2E/DX2                !
 ! A16   A(4,3,9)              111.0451         estimate D2E/DX2                !
 ! A17   A(4,3,13)             111.045          estimate D2E/DX2                !
 ! A18   A(9,3,13)             107.6128         estimate D2E/DX2                !
 ! A19   A(1,4,3)              105.7644         estimate D2E/DX2                !
 ! A20   A(1,4,10)             110.7069         estimate D2E/DX2                !
 ! A21   A(1,4,11)             110.7069         estimate D2E/DX2                !
 ! A22   A(3,4,10)             111.045          estimate D2E/DX2                !
 ! A23   A(3,4,11)             111.045          estimate D2E/DX2                !
 ! A24   A(10,4,11)            107.6128         estimate D2E/DX2                !
 ! A25   A(1,12,2)             110.5455         estimate D2E/DX2                !
 ! A26   A(1,12,14)            160.0109         estimate D2E/DX2                !
 ! A27   A(2,12,14)             85.64           estimate D2E/DX2                !
 ! D1    D(5,1,4,3)           -118.0794         estimate D2E/DX2                !
 ! D2    D(5,1,4,10)           121.5484         estimate D2E/DX2                !
 ! D3    D(5,1,4,11)             2.2928         estimate D2E/DX2                !
 ! D4    D(6,1,4,3)            118.0794         estimate D2E/DX2                !
 ! D5    D(6,1,4,10)            -2.2928         estimate D2E/DX2                !
 ! D6    D(6,1,4,11)          -121.5484         estimate D2E/DX2                !
 ! D7    D(12,1,4,3)             0.0            estimate D2E/DX2                !
 ! D8    D(12,1,4,10)         -120.3722         estimate D2E/DX2                !
 ! D9    D(12,1,4,11)          120.3722         estimate D2E/DX2                !
 ! D10   D(4,1,12,2)             0.0            estimate D2E/DX2                !
 ! D11   D(4,1,12,14)         -142.4517         estimate D2E/DX2                !
 ! D12   D(5,1,12,2)           121.4173         estimate D2E/DX2                !
 ! D13   D(5,1,12,14)          -21.0344         estimate D2E/DX2                !
 ! D14   D(6,1,12,2)          -121.4173         estimate D2E/DX2                !
 ! D15   D(6,1,12,14)           96.131          estimate D2E/DX2                !
 ! D16   D(7,2,3,4)           -118.0675         estimate D2E/DX2                !
 ! D17   D(7,2,3,9)            121.5603         estimate D2E/DX2                !
 ! D18   D(7,2,3,13)             2.3047         estimate D2E/DX2                !
 ! D19   D(8,2,3,4)            118.0675         estimate D2E/DX2                !
 ! D20   D(8,2,3,9)             -2.3047         estimate D2E/DX2                !
 ! D21   D(8,2,3,13)          -121.5603         estimate D2E/DX2                !
 ! D22   D(12,2,3,4)             0.0            estimate D2E/DX2                !
 ! D23   D(12,2,3,9)          -120.3722         estimate D2E/DX2                !
 ! D24   D(12,2,3,13)          120.3722         estimate D2E/DX2                !
 ! D25   D(3,2,12,1)             0.0            estimate D2E/DX2                !
 ! D26   D(3,2,12,14)          167.9401         estimate D2E/DX2                !
 ! D27   D(7,2,12,1)           121.3939         estimate D2E/DX2                !
 ! D28   D(7,2,12,14)          -70.6659         estimate D2E/DX2                !
 ! D29   D(8,2,12,1)          -121.3939         estimate D2E/DX2                !
 ! D30   D(8,2,12,14)           46.5462         estimate D2E/DX2                !
 ! D31   D(2,3,4,1)              0.0            estimate D2E/DX2                !
 ! D32   D(2,3,4,10)           120.1512         estimate D2E/DX2                !
 ! D33   D(2,3,4,11)          -120.1512         estimate D2E/DX2                !
 ! D34   D(9,3,4,1)            120.1511         estimate D2E/DX2                !
 ! D35   D(9,3,4,10)          -119.6977         estimate D2E/DX2                !
 ! D36   D(9,3,4,11)            -0.0001         estimate D2E/DX2                !
 ! D37   D(13,3,4,1)          -120.1511         estimate D2E/DX2                !
 ! D38   D(13,3,4,10)            0.0            estimate D2E/DX2                !
 ! D39   D(13,3,4,11)          119.6977         estimate D2E/DX2                !
 --------------------------------------------------------------------------------
 Trust Radius=3.00D-01 FncErr=1.00D-07 GrdErr=1.00D-07
 Number of steps in this run=     90 maximum allowed number of steps=    100.
 GradGradGradGradGradGradGradGradGradGradGradGradGradGradGradGradGradGrad

                          Input orientation:                          
 ---------------------------------------------------------------------
 Center     Atomic      Atomic             Coordinates (Angstroms)
 Number     Number       Type             X           Y           Z
 ---------------------------------------------------------------------
      1          6           0       -0.376723   -0.260434    0.029065
      2          6           0        1.555639    1.078956    0.029065
      3          6           0        0.379084    2.049123    0.029064
      4          6           0       -0.872267    1.181765    0.029064
      5          1           0       -0.700884   -0.819413   -0.886067
      6          1           0       -0.700884   -0.819413    0.944197
      7          1           0        2.192478    1.186455    0.944425
      8          1           0        2.192478    1.186455   -0.886295
      9          1           0        0.410473    2.708314   -0.872840
     10          1           0       -1.500546    1.383719    0.930967
     11          1           0       -1.500546    1.383718   -0.872840
     12          7           0        1.053648   -0.260434    0.029065
     13          8           0        0.419246    2.892605    1.183111
     14          1           0        1.997447   -0.532625   -0.180160
 ---------------------------------------------------------------------
                    Distance matrix (angstroms):
                    1          2          3          4          5
     1  C    0.000000
     2  C    2.351167   0.000000
     3  C    2.430082   1.524961   0.000000
     4  C    1.524960   2.430082   1.522560   0.000000
     5  H    1.120270   3.087583   3.198796   2.207159   0.000000
     6  H    1.120270   3.087583   3.198796   2.207160   1.830264
     7  H    3.087421   1.120270   2.206916   3.198526   3.968092
     8  H    3.087421   1.120270   2.206915   3.198526   3.520660
     9  H    3.201027   2.186240   1.117564   2.188425   3.698668
    10  H    2.186240   3.201027   2.188424   1.117564   2.965613
    11  H    2.186240   3.201028   2.188425   1.117564   2.343805
    12  N    1.430371   1.430371   2.406053   2.406052   2.056285
    13  O    3.450658   2.431570   1.430000   2.434503   4.394914
    14  H    2.398863   1.684091   3.054226   3.349353   2.803844
                    6          7          8          9         10
     6  H    0.000000
     7  H    3.520660   0.000000
     8  H    3.968092   1.830720   0.000000
     9  H    4.120873   2.965476   2.343454   0.000000
    10  H    2.343806   3.698313   4.120653   2.942833   0.000000
    11  H    2.965614   4.120654   3.698313   2.325199   1.803807
    12  N    2.056285   2.056284   2.056284   3.168686   3.168686
    13  O    3.884694   2.472301   3.215236   2.064213   2.454774
    14  H    2.937246   2.063483   1.868663   3.674504   4.140402
                   11         12         13         14
    11  H    0.000000
    12  N    3.168687   0.000000
    13  O    3.192065   3.417008   0.000000
    14  H    4.048225   1.004300   4.010165   0.000000
 Stoichiometry    C4H8NO(1-)
 Framework group  C1[X(C4H8NO)]
 Deg. of freedom    36
 Full point group                 C1      NOp   1
 Largest Abelian subgroup         C1      NOp   1
 Largest concise Abelian subgroup C1      NOp   1
                         Standard orientation:                         
 ---------------------------------------------------------------------
 Center     Atomic      Atomic             Coordinates (Angstroms)
 Number     Number       Type             X           Y           Z
 ---------------------------------------------------------------------
      1          6           0       -1.359068   -0.726258   -0.187601
      2          6           0       -0.042182    1.189546    0.163815
      3          6           0        0.879165    0.001204    0.417718
      4          6           0        0.026380   -1.239425    0.190149
      5          1           0       -2.142326   -1.040740    0.549021
      6          1           0       -1.662808   -1.046354   -1.217302
      7          1           0        0.309410    1.822211   -0.691242
      8          1           0       -0.170226    1.827826    1.075521
      9          1           0        1.279379    0.027283    1.460837
     10          1           0        0.449625   -1.872894   -0.627488
     11          1           0       -0.022961   -1.867361    1.113303
     12          7           0       -1.341012    0.703999   -0.187245
     13          8           0        1.995974    0.027492   -0.475001
     14          1           0       -1.646575    1.651698   -0.056413
 ---------------------------------------------------------------------
 Rotational constants (GHZ):      6.1672822      3.4393076      2.5295487
 Standard basis: VSTO-6G (5D, 7F)
 There are    32 symmetry adapted cartesian basis functions of A   symmetry.
 There are    32 symmetry adapted basis functions of A   symmetry.
    32 basis functions,   192 primitive gaussians,    32 cartesian basis functions
    18 alpha electrons       18 beta electrons
       nuclear repulsion energy       159.0002727807 Hartrees.
 Integral buffers will be    262144 words long.
 Regular integral format.
 Two-electron integral symmetry is turned off.
 Do NDO integrals.
 One-electron integrals computed using PRISM.
 NBasis=    32 RedAO= F EigKep=  0.00D+00  NBF=    32
 NBsUse=    32 1.00D-04 EigRej=  0.00D+00 NBFU=    32
 Simple Huckel Guess.
 Overlap will be assumed to be unity.
 Keep J ints in memory in canonical form, NReq=888608.
 Requested convergence on RMS density matrix=1.00D-08 within 128 cycles.
 Requested convergence on MAX density matrix=1.00D-06.
 Requested convergence on             energy=1.00D-06.
 No special actions if energy rises.
 SCF Done:  E(RPM6) =  0.805432707659E-02 A.U. after   14 cycles
            NFock= 13  Conv=0.62D-08     -V/T= 1.0004

 **********************************************************************

            Population analysis using the SCF density.

 **********************************************************************

 Orbital symmetries:
       Occupied  (A) (A) (A) (A) (A) (A) (A) (A) (A) (A) (A) (A)
                 (A) (A) (A) (A) (A) (A)
       Virtual   (A) (A) (A) (A) (A) (A) (A) (A) (A) (A) (A) (A)
                 (A) (A)
 The electronic state is 1-A.
 Alpha  occ. eigenvalues --   -1.03128  -0.82714  -0.77183  -0.64225  -0.59210
 Alpha  occ. eigenvalues --   -0.53664  -0.47402  -0.42047  -0.35372  -0.34818
 Alpha  occ. eigenvalues --   -0.32165  -0.28822  -0.27928  -0.26575  -0.22767
 Alpha  occ. eigenvalues --   -0.13835  -0.09679  -0.09115
 Alpha virt. eigenvalues --    0.25369   0.30428   0.34023   0.34771   0.35435
 Alpha virt. eigenvalues --    0.36296   0.36587   0.37200   0.37940   0.39816
 Alpha virt. eigenvalues --    0.41231   0.41313   0.42006   0.43484
     Molecular Orbital Coefficients:
                           1         2         3         4         5
                           O         O         O         O         O
     Eigenvalues --    -1.03128  -0.82714  -0.77183  -0.64225  -0.59210
   1 1   C  1S          0.31285   0.37826  -0.40357   0.10576  -0.26044
   2        1PX         0.04823   0.10925   0.10165  -0.15637   0.12619
   3        1PY         0.14827  -0.11257  -0.04025   0.13620  -0.01985
   4        1PZ         0.02116   0.02923   0.02075  -0.06515   0.03763
   5 2   C  1S          0.36544  -0.10073   0.38431  -0.20239  -0.35180
   6        1PX        -0.15853   0.15976   0.11479   0.05271  -0.20155
   7        1PY        -0.08470  -0.12325  -0.01842  -0.05385   0.00915
   8        1PZ        -0.02913   0.03311   0.03500  -0.05130  -0.07034
   9 3   C  1S          0.17213   0.31842   0.45825   0.11539  -0.06660
  10        1PX        -0.09675  -0.03937   0.03758   0.30672   0.09303
  11        1PY         0.02203  -0.11332   0.07050   0.03258  -0.28361
  12        1PZ        -0.01972  -0.02160  -0.03176  -0.16285  -0.04485
  13 4   C  1S          0.17617   0.50908   0.05367  -0.27952   0.37012
  14        1PX        -0.04931  -0.04343   0.18286   0.03759   0.15283
  15        1PY         0.08488   0.05498   0.07661   0.06080  -0.16088
  16        1PZ        -0.00924  -0.00477   0.04529  -0.05708   0.03793
  17 5   H  1S          0.10942   0.16086  -0.20264   0.06106  -0.15610
  18 6   H  1S          0.10259   0.15934  -0.19403   0.08070  -0.15643
  19 7   H  1S          0.12220  -0.05883   0.17183  -0.07149  -0.16552
  20 8   H  1S          0.13757  -0.07176   0.18274  -0.13719  -0.18681
  21 9   H  1S          0.05585   0.12786   0.20499   0.03324  -0.03704
  22 10  H  1S          0.05326   0.20671   0.02262  -0.10791   0.23704
  23 11  H  1S          0.05779   0.21890   0.01993  -0.17465   0.24310
  24 12  N  1S          0.69184  -0.28779  -0.19160   0.16431   0.22965
  25        1PX         0.10601   0.00657   0.14824  -0.13861  -0.12921
  26        1PY         0.00190  -0.26418   0.21687  -0.14979   0.27247
  27        1PZ         0.06690  -0.02808   0.03331  -0.05402   0.00204
  28 13  O  1S          0.01429   0.11262   0.26182   0.69056   0.17069
  29        1PX        -0.03397  -0.09186  -0.15775  -0.15488  -0.00814
  30        1PY         0.00241  -0.02380   0.01063   0.00293  -0.08194
  31        1PZ         0.01305   0.06306   0.12357   0.14454   0.01294
  32 14  H  1S          0.26172  -0.23060   0.02199  -0.00873   0.23295
                           6         7         8         9        10
                           O         O         O         O         O
     Eigenvalues --    -0.53664  -0.47402  -0.42047  -0.35372  -0.34818
   1 1   C  1S          0.15627  -0.08437  -0.02341   0.09923   0.01247
   2        1PX        -0.01591   0.33552   0.09149   0.15404   0.15836
   3        1PY        -0.33740   0.18077   0.09859  -0.39640   0.04521
   4        1PZ        -0.04304  -0.16562   0.50578   0.07228  -0.25364
   5 2   C  1S          0.22539   0.07656   0.04312  -0.11461  -0.01314
   6        1PX        -0.03781  -0.06612  -0.14885  -0.20825  -0.19023
   7        1PY         0.30349  -0.16537  -0.07299  -0.27286   0.02351
   8        1PZ        -0.07166  -0.25380   0.15462  -0.02684   0.56469
   9 3   C  1S         -0.30990  -0.15896  -0.16465   0.12658  -0.05720
  10        1PX         0.09823  -0.14473  -0.06163  -0.07478   0.01029
  11        1PY         0.06826  -0.00625   0.02480  -0.04386  -0.01883
  12        1PZ        -0.18748  -0.28216  -0.02094  -0.04657   0.14275
  13 4   C  1S          0.09965   0.06836   0.02161  -0.06919   0.01060
  14        1PX        -0.17433  -0.02068  -0.20208  -0.21305   0.00101
  15        1PY        -0.23434   0.08744   0.02275   0.36696  -0.01540
  16        1PZ        -0.12475  -0.23352   0.25343  -0.14420  -0.24377
  17 5   H  1S          0.13443  -0.31914   0.16126   0.09887  -0.23739
  18 6   H  1S          0.16828  -0.03671  -0.38253   0.05821   0.15175
  19 7   H  1S          0.23142   0.08030  -0.11353  -0.19911  -0.34605
  20 8   H  1S          0.18746  -0.16776   0.08353  -0.18542   0.37597
  21 9   H  1S         -0.22473  -0.29079  -0.11163   0.00588   0.07581
  22 10  H  1S          0.14055   0.10058  -0.17307  -0.16265   0.13966
  23 11  H  1S          0.07121  -0.13263   0.15029  -0.27962  -0.14315
  24 12  N  1S         -0.19135   0.02187  -0.03634  -0.10441  -0.01643
  25        1PX         0.04879   0.36257   0.16950   0.17210   0.01009
  26        1PY         0.25606  -0.22128  -0.15753   0.39971  -0.08040
  27        1PZ        -0.01488  -0.12733   0.30205   0.11928   0.16952
  28 13  O  1S          0.35149   0.08739   0.29776  -0.02349   0.14492
  29        1PX         0.02391  -0.02699   0.11853  -0.06355   0.14581
  30        1PY         0.02234  -0.00401   0.01697  -0.02244  -0.05285
  31        1PZ        -0.05569  -0.11186  -0.09276   0.01789  -0.02873
  32 14  H  1S          0.10468  -0.23874  -0.13920   0.17105  -0.03215
                          11        12        13        14        15
                           O         O         O         O         O
     Eigenvalues --    -0.32165  -0.28822  -0.27928  -0.26575  -0.22767
   1 1   C  1S          0.02497  -0.01238   0.05737   0.08618  -0.02353
   2        1PX         0.14314  -0.40015   0.12335   0.24657  -0.08185
   3        1PY        -0.07744  -0.00479   0.08054   0.06345  -0.00713
   4        1PZ        -0.27382  -0.05948  -0.07598   0.21693   0.10894
   5 2   C  1S         -0.01623   0.07179  -0.03632  -0.06933   0.02190
   6        1PX        -0.16035  -0.40520   0.07035  -0.16112   0.12243
   7        1PY        -0.03480   0.02955   0.35773   0.39236  -0.06553
   8        1PZ        -0.13817  -0.07801   0.00970  -0.17305  -0.15331
   9 3   C  1S         -0.03333  -0.00429  -0.01333  -0.02371   0.00186
  10        1PX         0.11159   0.01284  -0.19132   0.38305  -0.24825
  11        1PY         0.04967  -0.34664  -0.37591  -0.17783   0.01800
  12        1PZ         0.33378   0.00056  -0.05013   0.20025   0.35952
  13 4   C  1S         -0.05271  -0.06726   0.08924  -0.00063   0.02166
  14        1PX        -0.24133   0.44602   0.03315  -0.16473   0.13206
  15        1PY        -0.09350   0.03105   0.52285   0.05296   0.03076
  16        1PZ         0.38082   0.08390   0.22626  -0.26758  -0.26026
  17 5   H  1S         -0.20375   0.21795  -0.10891   0.00840   0.12245
  18 6   H  1S          0.20235   0.13709   0.04817  -0.20429  -0.09137
  19 7   H  1S          0.01073  -0.01146   0.14758   0.18727   0.11981
  20 8   H  1S         -0.10242   0.03333   0.16440   0.04597  -0.15087
  21 9   H  1S          0.26431  -0.00336  -0.11234   0.26498   0.23148
  22 10  H  1S         -0.26087   0.04309  -0.28538   0.07464   0.20363
  23 11  H  1S          0.26801  -0.00595  -0.04201  -0.21111  -0.20281
  24 12  N  1S          0.02067  -0.09654  -0.05753   0.00233   0.00408
  25        1PX         0.27091   0.40033  -0.24494   0.09385  -0.05036
  26        1PY         0.03712  -0.02512  -0.00802  -0.10663   0.03211
  27        1PZ        -0.20503   0.07082  -0.12262   0.00422  -0.07281
  28 13  O  1S          0.15177  -0.00204   0.11936  -0.14145   0.27637
  29        1PX         0.23735   0.00570   0.07986  -0.01213   0.51274
  30        1PY         0.05745  -0.22925  -0.16155  -0.10302   0.01619
  31        1PZ         0.03641   0.00153  -0.16971   0.29862  -0.33770
  32 14  H  1S         -0.07328  -0.17551   0.08906  -0.07742   0.02556
                          16        17        18        19        20
                           O         O         O         V         V
     Eigenvalues --    -0.13835  -0.09679  -0.09115   0.25369   0.30428
   1 1   C  1S          0.02444   0.00242  -0.01510   0.18523   0.21312
   2        1PX         0.02546  -0.04049  -0.03129   0.00924   0.50021
   3        1PY         0.05594   0.03523  -0.00150   0.62437  -0.06025
   4        1PZ        -0.14538  -0.00119  -0.00797  -0.00619   0.11802
   5 2   C  1S          0.00505  -0.09361   0.07770   0.02695  -0.06470
   6        1PX         0.02748  -0.17056   0.10843  -0.18639   0.35052
   7        1PY         0.02957   0.14848  -0.11490  -0.07255   0.02547
   8        1PZ        -0.19928  -0.00418   0.02201  -0.05955   0.09164
   9 3   C  1S         -0.00827  -0.00546  -0.02857  -0.00890  -0.12199
  10        1PX         0.01443   0.00120  -0.05700  -0.01253   0.20214
  11        1PY        -0.01838  -0.04211   0.00553   0.11299   0.05706
  12        1PZ         0.03612  -0.00645  -0.09932   0.00011   0.03677
  13 4   C  1S         -0.00656   0.10147   0.06233  -0.01673  -0.15894
  14        1PX         0.03274   0.17107   0.08001  -0.04011   0.55224
  15        1PY        -0.00320   0.17269   0.09087  -0.01106  -0.05283
  16        1PZ         0.03531   0.00507   0.01810  -0.02215   0.15297
  17 5   H  1S         -0.19552   0.03889   0.01548   0.04443   0.11691
  18 6   H  1S          0.20002   0.00756   0.01025   0.00172   0.08774
  19 7   H  1S          0.20963  -0.01741  -0.01068  -0.05785  -0.04717
  20 8   H  1S         -0.20697   0.05469  -0.01910  -0.03460  -0.02384
  21 9   H  1S          0.03449  -0.01771  -0.25392   0.03083  -0.04351
  22 10  H  1S         -0.01256   0.01403  -0.00498   0.05917  -0.02324
  23 11  H  1S          0.02570  -0.04102  -0.00627   0.07272  -0.01596
  24 12  N  1S         -0.09193  -0.02309  -0.01056  -0.47687   0.03126
  25        1PX        -0.12843   0.05682  -0.04074   0.04620   0.25989
  26        1PY        -0.06916   0.00544   0.02137   0.10530   0.04398
  27        1PZ         0.85082  -0.03126  -0.01560  -0.10211   0.02657
  28 13  O  1S          0.00316  -0.00076  -0.00297   0.00428  -0.02890
  29        1PX         0.04414   0.01099   0.56858  -0.01663   0.02567
  30        1PY         0.05348   0.92265  -0.04241  -0.03526  -0.00932
  31        1PZ        -0.00219   0.04871   0.73530   0.01682  -0.07845
  32 14  H  1S          0.05801  -0.01846   0.02887   0.49681   0.16794
                          21        22        23        24        25
                           V         V         V         V         V
     Eigenvalues --     0.34023   0.34771   0.35435   0.36296   0.36587
   1 1   C  1S         -0.34738  -0.01544   0.21615  -0.32530  -0.09793
   2        1PX         0.02055  -0.19281   0.13057   0.41861   0.02131
   3        1PY         0.20698   0.06461  -0.19284   0.09749  -0.01216
   4        1PZ        -0.25737   0.47929  -0.10553   0.11010   0.20998
   5 2   C  1S         -0.08715  -0.01712   0.03610   0.02330  -0.18733
   6        1PX         0.17168   0.00164  -0.43543  -0.29599   0.00553
   7        1PY         0.27797   0.22203   0.23774  -0.05715  -0.13205
   8        1PZ         0.09386   0.04573  -0.04378  -0.03674  -0.46227
   9 3   C  1S         -0.06297  -0.02801   0.10601   0.09638   0.01432
  10        1PX         0.06180  -0.00408  -0.12610  -0.18362   0.08439
  11        1PY         0.27739   0.30871   0.50099  -0.00106   0.12828
  12        1PZ        -0.00207   0.07118  -0.03818   0.04359  -0.23011
  13 4   C  1S          0.12622   0.10482  -0.09671  -0.04518  -0.07662
  14        1PX        -0.12151  -0.01266   0.30324   0.00470   0.06214
  15        1PY         0.33642   0.18177   0.12613  -0.22752   0.12460
  16        1PZ        -0.13773   0.22435  -0.03533   0.14339  -0.19895
  17 5   H  1S          0.46053  -0.36657  -0.04834   0.37316  -0.05305
  18 6   H  1S          0.08535   0.41182  -0.25903   0.40308   0.22842
  19 7   H  1S         -0.09148  -0.09210  -0.04817   0.11303  -0.18319
  20 8   H  1S         -0.14962  -0.14459  -0.15786   0.02114   0.53785
  21 9   H  1S          0.02658  -0.05499  -0.01242  -0.04779   0.16945
  22 10  H  1S          0.03050   0.27028   0.00367   0.01117  -0.07266
  23 11  H  1S          0.21785  -0.17726   0.20208  -0.21461   0.27826
  24 12  N  1S          0.10888   0.04166  -0.02727  -0.02852   0.00572
  25        1PX         0.21125   0.09410  -0.26368  -0.29945  -0.05819
  26        1PY         0.12023   0.09626  -0.06690  -0.04390  -0.01539
  27        1PZ         0.10625  -0.05883  -0.03166  -0.05640   0.03247
  28 13  O  1S         -0.00849   0.01457   0.00740   0.03603  -0.05943
  29        1PX         0.00304  -0.05495   0.02308  -0.05677   0.17413
  30        1PY        -0.08112  -0.08089  -0.11575   0.00091  -0.02936
  31        1PZ        -0.01562   0.02320   0.01673   0.07188  -0.09002
  32 14  H  1S         -0.10364  -0.08272  -0.11326  -0.12868  -0.03322
                          26        27        28        29        30
                           V         V         V         V         V
     Eigenvalues --     0.37200   0.37940   0.39816   0.41231   0.41313
   1 1   C  1S          0.06696   0.03631  -0.00653   0.02076   0.00242
   2        1PX         0.00570  -0.02319   0.00913   0.11847   0.02634
   3        1PY         0.04730  -0.04256  -0.07332  -0.02715   0.02877
   4        1PZ         0.03569  -0.30251   0.01856  -0.02219  -0.03080
   5 2   C  1S         -0.21912  -0.17780  -0.38592   0.36170  -0.05441
   6        1PX         0.10017   0.05266  -0.01448   0.10974  -0.11977
   7        1PY         0.45056  -0.00015  -0.13373   0.09780  -0.03747
   8        1PZ        -0.06829  -0.31711   0.09634  -0.17855   0.14665
   9 3   C  1S          0.45600  -0.00176   0.03540  -0.05516   0.42312
  10        1PX        -0.39322  -0.02953  -0.23231  -0.08213   0.45769
  11        1PY        -0.06283   0.20926   0.01055  -0.29757  -0.03210
  12        1PZ        -0.11991   0.05819   0.30932   0.02143  -0.22163
  13 4   C  1S         -0.15269   0.15872  -0.32190  -0.42382  -0.15273
  14        1PX        -0.10263  -0.05839  -0.05762  -0.13812  -0.15495
  15        1PY        -0.38069   0.00135   0.17023   0.13656   0.05125
  16        1PZ        -0.08979   0.44845  -0.04132   0.11722   0.15576
  17 5   H  1S         -0.03550   0.11768  -0.02053   0.03782   0.02572
  18 6   H  1S          0.00600  -0.25780  -0.00463  -0.02035  -0.01537
  19 7   H  1S         -0.18846  -0.14265   0.41665  -0.42162   0.17425
  20 8   H  1S         -0.01406   0.32827   0.19846  -0.10276  -0.04029
  21 9   H  1S         -0.10420  -0.04478  -0.22383   0.04751  -0.24321
  22 10  H  1S         -0.13158   0.26820   0.31036   0.45569   0.26069
  23 11  H  1S         -0.01366  -0.43220   0.27894   0.19278   0.00829
  24 12  N  1S          0.05470   0.00621   0.02348  -0.00656  -0.00603
  25        1PX         0.26639   0.06518   0.13173  -0.12829  -0.02226
  26        1PY         0.03321  -0.04005  -0.04725   0.00732   0.02959
  27        1PZ         0.06258   0.09399   0.00145   0.00733  -0.01513
  28 13  O  1S          0.01862   0.01396   0.08204   0.02283  -0.15021
  29        1PX         0.10261  -0.03709  -0.18716  -0.05666   0.38935
  30        1PY         0.01242  -0.05826  -0.00951   0.08294   0.02169
  31        1PZ         0.02375   0.02292   0.14699   0.05449  -0.32646
  32 14  H  1S          0.05096   0.05241   0.08919  -0.05168  -0.03902
                          31        32
                           V         V
     Eigenvalues --     0.42006   0.43484
   1 1   C  1S         -0.02573   0.30409
   2        1PX         0.01582   0.04670
   3        1PY        -0.07397   0.32346
   4        1PZ        -0.01057  -0.03980
   5 2   C  1S         -0.15407  -0.09689
   6        1PX        -0.03340   0.05490
   7        1PY         0.02194  -0.08984
   8        1PZ         0.22103   0.02664
   9 3   C  1S         -0.19040  -0.05267
  10        1PX        -0.22410  -0.07947
  11        1PY         0.00111  -0.03802
  12        1PZ        -0.55587  -0.05118
  13 4   C  1S         -0.11924  -0.05343
  14        1PX        -0.04444   0.03430
  15        1PY         0.00995  -0.06177
  16        1PZ         0.17290   0.03243
  17 5   H  1S          0.00752  -0.02876
  18 6   H  1S         -0.00835  -0.08463
  19 7   H  1S          0.22453   0.11129
  20 8   H  1S         -0.07268   0.09279
  21 9   H  1S          0.58429   0.08354
  22 10  H  1S          0.19090   0.02197
  23 11  H  1S         -0.04786  -0.00683
  24 12  N  1S          0.01062   0.05464
  25        1PX         0.08718  -0.09648
  26        1PY        -0.09091   0.63534
  27        1PZ        -0.01835   0.05533
  28 13  O  1S         -0.03199   0.00874
  29        1PX         0.09802  -0.01711
  30        1PY         0.00024   0.00460
  31        1PZ         0.05863   0.03645
  32 14  H  1S          0.10641  -0.54652
     Density Matrix:
                           1         2         3         4         5
   1 1   C  1S          1.07562
   2        1PX        -0.01982   1.00311
   3        1PY        -0.11915   0.01028   0.78319
   4        1PZ        -0.01148   0.00004   0.00784   1.05292
   5 2   C  1S         -0.00716  -0.02735   0.01331  -0.00755   1.10958
   6        1PX        -0.02080  -0.01455   0.05889  -0.00088   0.09207
   7        1PY         0.04000   0.02524   0.05613   0.00962   0.00798
   8        1PZ        -0.01058  -0.00550   0.01061  -0.00756   0.01474
   9 3   C  1S         -0.00763   0.00080  -0.01099  -0.00127   0.20958
  10        1PX         0.00263  -0.00583  -0.00774  -0.00145  -0.25063
  11        1PY        -0.02702  -0.00099  -0.05664  -0.00059   0.33191
  12        1PZ         0.00342   0.00140  -0.00641   0.00477  -0.09260
  13 4   C  1S          0.21169   0.39311  -0.11096   0.10740  -0.02975
  14        1PX        -0.42064  -0.59878   0.25506  -0.18413   0.01897
  15        1PY         0.17308   0.23325   0.04771   0.06185  -0.03028
  16        1PZ        -0.11369  -0.18470   0.07031   0.02250   0.00594
  17 5   H  1S          0.50775  -0.57724  -0.24671   0.56693   0.02930
  18 6   H  1S          0.52277  -0.21020  -0.22296  -0.77586   0.02720
  19 7   H  1S          0.03519   0.00341   0.06634   0.01080   0.51048
  20 8   H  1S          0.02682   0.00735   0.05336  -0.00601   0.50896
  21 9   H  1S          0.02410   0.03517  -0.01680   0.00856  -0.03688
  22 10  H  1S         -0.01254  -0.00361  -0.02221  -0.00612   0.01944
  23 11  H  1S         -0.01624  -0.01658  -0.02072  -0.00359   0.02657
  24 12  N  1S          0.19477   0.01554   0.50899   0.00385   0.11785
  25        1PX        -0.04053   0.12420  -0.10142  -0.00488   0.42252
  26        1PY        -0.36758  -0.02001  -0.64527  -0.01150   0.08224
  27        1PZ         0.03184   0.00045   0.05895   0.15141   0.10261
  28 13  O  1S          0.00427   0.00687  -0.00185   0.00298   0.00599
  29        1PX        -0.01474  -0.02067   0.01368  -0.00842   0.06665
  30        1PY        -0.00083  -0.01107   0.03419  -0.00514  -0.09819
  31        1PZ         0.01622   0.02419  -0.00864   0.00712   0.03092
  32 14  H  1S         -0.04073  -0.00390  -0.18450  -0.01036   0.04562
                           6         7         8         9        10
   6        1PX         0.98429
   7        1PY        -0.07965   1.09977
   8        1PZ        -0.03755  -0.06306   1.08548
   9 3   C  1S          0.26950  -0.34330   0.06281   1.05852
  10        1PX        -0.19046   0.35471  -0.08422   0.00124   0.83236
  11        1PY         0.39282  -0.37383   0.11187   0.00652  -0.00489
  12        1PZ        -0.09261   0.11526   0.05630   0.07949   0.03315
  13 4   C  1S          0.01027   0.02817   0.00208   0.20815  -0.23098
  14        1PX        -0.08265   0.01256  -0.02368   0.25109  -0.14789
  15        1PY        -0.03861   0.03445  -0.01319   0.35713  -0.34186
  16        1PZ        -0.02348   0.00356  -0.00371   0.05447  -0.07022
  17 5   H  1S         -0.04727  -0.02556  -0.01701   0.02309  -0.02129
  18 6   H  1S         -0.04568  -0.02370  -0.00778   0.01856  -0.01760
  19 7   H  1S          0.27211   0.46010  -0.64127   0.00959   0.01497
  20 8   H  1S         -0.10339   0.46589   0.69690  -0.01461   0.00597
  21 9   H  1S         -0.02765   0.05740  -0.01020   0.55027   0.28235
  22 10  H  1S          0.01747  -0.01924   0.00785   0.01716   0.00845
  23 11  H  1S          0.02350  -0.02758   0.00430  -0.00805  -0.00004
  24 12  N  1S         -0.29413  -0.17144  -0.08727  -0.01106   0.01616
  25        1PX        -0.66125  -0.29251  -0.20962  -0.01292   0.00169
  26        1PY        -0.19141   0.00254  -0.06171   0.03721  -0.02346
  27        1PZ        -0.18922  -0.07973   0.07161  -0.01299   0.00997
  28 13  O  1S          0.00623  -0.02233   0.01589   0.08160   0.21997
  29        1PX         0.05156  -0.06214   0.00631  -0.37633  -0.38899
  30        1PY        -0.08855   0.09623  -0.02759  -0.01193  -0.01514
  31        1PZ         0.03151  -0.03192   0.01752   0.24212   0.50825
  32 14  H  1S         -0.01514   0.07052   0.00341   0.03956  -0.04085
                          11        12        13        14        15
  11        1PY         0.81082
  12        1PZ         0.00028   0.92527
  13 4   C  1S         -0.34102  -0.08494   1.11625
  14        1PX        -0.37519  -0.07879   0.05489   1.03831
  15        1PY        -0.42133  -0.10895   0.00283   0.05434   1.13715
  16        1PZ        -0.10405   0.06088   0.00653  -0.03074   0.04760
  17 5   H  1S         -0.02104  -0.00947  -0.00729   0.03464  -0.00507
  18 6   H  1S         -0.02099  -0.00410  -0.01090   0.02460  -0.00231
  19 7   H  1S          0.01704  -0.01166   0.01555   0.01634   0.01963
  20 8   H  1S          0.00318   0.00625   0.02558   0.01685   0.03130
  21 9   H  1S          0.01416   0.75931  -0.03619  -0.02594  -0.05501
  22 10  H  1S         -0.02567  -0.01505   0.50908   0.31358  -0.45650
  23 11  H  1S         -0.01222   0.00547   0.50827  -0.05230  -0.45779
  24 12  N  1S          0.04748   0.00824  -0.01839  -0.02100  -0.06058
  25        1PX        -0.01879   0.00503  -0.03547  -0.01015  -0.02164
  26        1PY        -0.00736  -0.00619   0.00159  -0.00934   0.00857
  27        1PZ        -0.00318   0.00574  -0.02237   0.01838  -0.02167
  28 13  O  1S          0.00540  -0.18005   0.00647   0.00435   0.02388
  29        1PX        -0.01273   0.51974   0.05943   0.04461   0.05867
  30        1PY         0.30474   0.01189   0.10013   0.08353   0.10769
  31        1PZ         0.01038  -0.21005   0.02959   0.02624   0.03497
  32 14  H  1S          0.00641  -0.01561   0.04249  -0.05144   0.06360
                          16        17        18        19        20
  16        1PZ         1.13118
  17 5   H  1S         -0.00523   0.94998
  18 6   H  1S          0.01881  -0.04050   0.91855
  19 7   H  1S          0.00752  -0.01229   0.01092   0.85706
  20 8   H  1S          0.00143   0.01265  -0.01527  -0.02083   0.93375
  21 9   H  1S         -0.01296  -0.00603  -0.00260   0.04419  -0.01716
  22 10  H  1S         -0.62901   0.04533  -0.02165   0.00233   0.00448
  23 11  H  1S          0.71165  -0.02659   0.04800   0.00583  -0.00100
  24 12  N  1S         -0.00848  -0.00824  -0.03876  -0.03625  -0.02272
  25        1PX        -0.00402   0.01433  -0.01710  -0.00205   0.01285
  26        1PY         0.00015   0.01053  -0.01438  -0.01037  -0.01075
  27        1PZ         0.00268  -0.10959   0.09686   0.07747  -0.10673
  28 13  O  1S          0.01624   0.00079   0.00144  -0.00365   0.01044
  29        1PX        -0.00047   0.00559   0.00478   0.03017  -0.05385
  30        1PY         0.02223   0.01281   0.00949   0.00041   0.00479
  31        1PZ         0.01692   0.00287   0.00134  -0.03337   0.01247
  32 14  H  1S         -0.01269   0.00079   0.04809   0.04885   0.02762
                          21        22        23        24        25
  21 9   H  1S          0.97907
  22 10  H  1S          0.04050   0.83691
  23 11  H  1S         -0.02065   0.01058   0.89379
  24 12  N  1S          0.02419   0.02954   0.03144   1.49936
  25        1PX         0.03936  -0.00413   0.00031  -0.08623   1.17567
  26        1PY        -0.00316  -0.02631  -0.02610  -0.01046  -0.02326
  27        1PZ         0.00556   0.01579  -0.00236  -0.13642  -0.11578
  28 13  O  1S          0.02558  -0.00288   0.01042   0.00181   0.00711
  29        1PX        -0.04945   0.03412  -0.04847  -0.01576  -0.02243
  30        1PY        -0.00132   0.00221  -0.00195  -0.01391   0.02026
  31        1PZ        -0.13247  -0.03276   0.01325   0.01022   0.02474
  32 14  H  1S         -0.01532  -0.02031  -0.02179   0.52555  -0.41098
                          26        27        28        29        30
  26        1PY         1.07765
  27        1PZ        -0.07259   1.90489
  28 13  O  1S          0.00247   0.00211   1.92504
  29        1PX         0.00443  -0.01535   0.18178   1.50064
  30        1PY         0.01232   0.00406   0.00429  -0.01123   1.92055
  31        1PZ         0.00544   0.00840  -0.14484   0.34796   0.00904
  32 14  H  1S          0.62007   0.13277   0.00211   0.01341   0.00181
                          31        32
  31        1PZ         1.68444
  32 14  H  1S          0.00303   0.69882
    Full Mulliken population analysis:
                           1         2         3         4         5
   1 1   C  1S          1.07562
   2        1PX         0.00000   1.00311
   3        1PY         0.00000   0.00000   0.78319
   4        1PZ         0.00000   0.00000   0.00000   1.05292
   5 2   C  1S          0.00000   0.00000   0.00000   0.00000   1.10958
   6        1PX         0.00000   0.00000   0.00000   0.00000   0.00000
   7        1PY         0.00000   0.00000   0.00000   0.00000   0.00000
   8        1PZ         0.00000   0.00000   0.00000   0.00000   0.00000
   9 3   C  1S          0.00000   0.00000   0.00000   0.00000   0.00000
  10        1PX         0.00000   0.00000   0.00000   0.00000   0.00000
  11        1PY         0.00000   0.00000   0.00000   0.00000   0.00000
  12        1PZ         0.00000   0.00000   0.00000   0.00000   0.00000
  13 4   C  1S          0.00000   0.00000   0.00000   0.00000   0.00000
  14        1PX         0.00000   0.00000   0.00000   0.00000   0.00000
  15        1PY         0.00000   0.00000   0.00000   0.00000   0.00000
  16        1PZ         0.00000   0.00000   0.00000   0.00000   0.00000
  17 5   H  1S          0.00000   0.00000   0.00000   0.00000   0.00000
  18 6   H  1S          0.00000   0.00000   0.00000   0.00000   0.00000
  19 7   H  1S          0.00000   0.00000   0.00000   0.00000   0.00000
  20 8   H  1S          0.00000   0.00000   0.00000   0.00000   0.00000
  21 9   H  1S          0.00000   0.00000   0.00000   0.00000   0.00000
  22 10  H  1S          0.00000   0.00000   0.00000   0.00000   0.00000
  23 11  H  1S          0.00000   0.00000   0.00000   0.00000   0.00000
  24 12  N  1S          0.00000   0.00000   0.00000   0.00000   0.00000
  25        1PX         0.00000   0.00000   0.00000   0.00000   0.00000
  26        1PY         0.00000   0.00000   0.00000   0.00000   0.00000
  27        1PZ         0.00000   0.00000   0.00000   0.00000   0.00000
  28 13  O  1S          0.00000   0.00000   0.00000   0.00000   0.00000
  29        1PX         0.00000   0.00000   0.00000   0.00000   0.00000
  30        1PY         0.00000   0.00000   0.00000   0.00000   0.00000
  31        1PZ         0.00000   0.00000   0.00000   0.00000   0.00000
  32 14  H  1S          0.00000   0.00000   0.00000   0.00000   0.00000
                           6         7         8         9        10
   6        1PX         0.98429
   7        1PY         0.00000   1.09977
   8        1PZ         0.00000   0.00000   1.08548
   9 3   C  1S          0.00000   0.00000   0.00000   1.05852
  10        1PX         0.00000   0.00000   0.00000   0.00000   0.83236
  11        1PY         0.00000   0.00000   0.00000   0.00000   0.00000
  12        1PZ         0.00000   0.00000   0.00000   0.00000   0.00000
  13 4   C  1S          0.00000   0.00000   0.00000   0.00000   0.00000
  14        1PX         0.00000   0.00000   0.00000   0.00000   0.00000
  15        1PY         0.00000   0.00000   0.00000   0.00000   0.00000
  16        1PZ         0.00000   0.00000   0.00000   0.00000   0.00000
  17 5   H  1S          0.00000   0.00000   0.00000   0.00000   0.00000
  18 6   H  1S          0.00000   0.00000   0.00000   0.00000   0.00000
  19 7   H  1S          0.00000   0.00000   0.00000   0.00000   0.00000
  20 8   H  1S          0.00000   0.00000   0.00000   0.00000   0.00000
  21 9   H  1S          0.00000   0.00000   0.00000   0.00000   0.00000
  22 10  H  1S          0.00000   0.00000   0.00000   0.00000   0.00000
  23 11  H  1S          0.00000   0.00000   0.00000   0.00000   0.00000
  24 12  N  1S          0.00000   0.00000   0.00000   0.00000   0.00000
  25        1PX         0.00000   0.00000   0.00000   0.00000   0.00000
  26        1PY         0.00000   0.00000   0.00000   0.00000   0.00000
  27        1PZ         0.00000   0.00000   0.00000   0.00000   0.00000
  28 13  O  1S          0.00000   0.00000   0.00000   0.00000   0.00000
  29        1PX         0.00000   0.00000   0.00000   0.00000   0.00000
  30        1PY         0.00000   0.00000   0.00000   0.00000   0.00000
  31        1PZ         0.00000   0.00000   0.00000   0.00000   0.00000
  32 14  H  1S          0.00000   0.00000   0.00000   0.00000   0.00000
                          11        12        13        14        15
  11        1PY         0.81082
  12        1PZ         0.00000   0.92527
  13 4   C  1S          0.00000   0.00000   1.11625
  14        1PX         0.00000   0.00000   0.00000   1.03831
  15        1PY         0.00000   0.00000   0.00000   0.00000   1.13715
  16        1PZ         0.00000   0.00000   0.00000   0.00000   0.00000
  17 5   H  1S          0.00000   0.00000   0.00000   0.00000   0.00000
  18 6   H  1S          0.00000   0.00000   0.00000   0.00000   0.00000
  19 7   H  1S          0.00000   0.00000   0.00000   0.00000   0.00000
  20 8   H  1S          0.00000   0.00000   0.00000   0.00000   0.00000
  21 9   H  1S          0.00000   0.00000   0.00000   0.00000   0.00000
  22 10  H  1S          0.00000   0.00000   0.00000   0.00000   0.00000
  23 11  H  1S          0.00000   0.00000   0.00000   0.00000   0.00000
  24 12  N  1S          0.00000   0.00000   0.00000   0.00000   0.00000
  25        1PX         0.00000   0.00000   0.00000   0.00000   0.00000
  26        1PY         0.00000   0.00000   0.00000   0.00000   0.00000
  27        1PZ         0.00000   0.00000   0.00000   0.00000   0.00000
  28 13  O  1S          0.00000   0.00000   0.00000   0.00000   0.00000
  29        1PX         0.00000   0.00000   0.00000   0.00000   0.00000
  30        1PY         0.00000   0.00000   0.00000   0.00000   0.00000
  31        1PZ         0.00000   0.00000   0.00000   0.00000   0.00000
  32 14  H  1S          0.00000   0.00000   0.00000   0.00000   0.00000
                          16        17        18        19        20
  16        1PZ         1.13118
  17 5   H  1S          0.00000   0.94998
  18 6   H  1S          0.00000   0.00000   0.91855
  19 7   H  1S          0.00000   0.00000   0.00000   0.85706
  20 8   H  1S          0.00000   0.00000   0.00000   0.00000   0.93375
  21 9   H  1S          0.00000   0.00000   0.00000   0.00000   0.00000
  22 10  H  1S          0.00000   0.00000   0.00000   0.00000   0.00000
  23 11  H  1S          0.00000   0.00000   0.00000   0.00000   0.00000
  24 12  N  1S          0.00000   0.00000   0.00000   0.00000   0.00000
  25        1PX         0.00000   0.00000   0.00000   0.00000   0.00000
  26        1PY         0.00000   0.00000   0.00000   0.00000   0.00000
  27        1PZ         0.00000   0.00000   0.00000   0.00000   0.00000
  28 13  O  1S          0.00000   0.00000   0.00000   0.00000   0.00000
  29        1PX         0.00000   0.00000   0.00000   0.00000   0.00000
  30        1PY         0.00000   0.00000   0.00000   0.00000   0.00000
  31        1PZ         0.00000   0.00000   0.00000   0.00000   0.00000
  32 14  H  1S          0.00000   0.00000   0.00000   0.00000   0.00000
                          21        22        23        24        25
  21 9   H  1S          0.97907
  22 10  H  1S          0.00000   0.83691
  23 11  H  1S          0.00000   0.00000   0.89379
  24 12  N  1S          0.00000   0.00000   0.00000   1.49936
  25        1PX         0.00000   0.00000   0.00000   0.00000   1.17567
  26        1PY         0.00000   0.00000   0.00000   0.00000   0.00000
  27        1PZ         0.00000   0.00000   0.00000   0.00000   0.00000
  28 13  O  1S          0.00000   0.00000   0.00000   0.00000   0.00000
  29        1PX         0.00000   0.00000   0.00000   0.00000   0.00000
  30        1PY         0.00000   0.00000   0.00000   0.00000   0.00000
  31        1PZ         0.00000   0.00000   0.00000   0.00000   0.00000
  32 14  H  1S          0.00000   0.00000   0.00000   0.00000   0.00000
                          26        27        28        29        30
  26        1PY         1.07765
  27        1PZ         0.00000   1.90489
  28 13  O  1S          0.00000   0.00000   1.92504
  29        1PX         0.00000   0.00000   0.00000   1.50064
  30        1PY         0.00000   0.00000   0.00000   0.00000   1.92055
  31        1PZ         0.00000   0.00000   0.00000   0.00000   0.00000
  32 14  H  1S          0.00000   0.00000   0.00000   0.00000   0.00000
                          31        32
  31        1PZ         1.68444
  32 14  H  1S          0.00000   0.69882
     Gross orbital populations:
                           1
   1 1   C  1S          1.07562
   2        1PX         1.00311
   3        1PY         0.78319
   4        1PZ         1.05292
   5 2   C  1S          1.10958
   6        1PX         0.98429
   7        1PY         1.09977
   8        1PZ         1.08548
   9 3   C  1S          1.05852
  10        1PX         0.83236
  11        1PY         0.81082
  12        1PZ         0.92527
  13 4   C  1S          1.11625
  14        1PX         1.03831
  15        1PY         1.13715
  16        1PZ         1.13118
  17 5   H  1S          0.94998
  18 6   H  1S          0.91855
  19 7   H  1S          0.85706
  20 8   H  1S          0.93375
  21 9   H  1S          0.97907
  22 10  H  1S          0.83691
  23 11  H  1S          0.89379
  24 12  N  1S          1.49936
  25        1PX         1.17567
  26        1PY         1.07765
  27        1PZ         1.90489
  28 13  O  1S          1.92504
  29        1PX         1.50064
  30        1PY         1.92055
  31        1PZ         1.68444
  32 14  H  1S          0.69882
          Condensed to atoms (all electrons):
               1          2          3          4          5          6
     1  C    3.914838   0.000000   0.000000   0.000000   0.000000   0.000000
     2  C    0.000000   4.279122   0.000000   0.000000   0.000000   0.000000
     3  C    0.000000   0.000000   3.626978   0.000000   0.000000   0.000000
     4  C    0.000000   0.000000   0.000000   4.422882   0.000000   0.000000
     5  H    0.000000   0.000000   0.000000   0.000000   0.949984   0.000000
     6  H    0.000000   0.000000   0.000000   0.000000   0.000000   0.918546
     7  H    0.000000   0.000000   0.000000   0.000000   0.000000   0.000000
     8  H    0.000000   0.000000   0.000000   0.000000   0.000000   0.000000
     9  H    0.000000   0.000000   0.000000   0.000000   0.000000   0.000000
    10  H    0.000000   0.000000   0.000000   0.000000   0.000000   0.000000
    11  H    0.000000   0.000000   0.000000   0.000000   0.000000   0.000000
    12  N    0.000000   0.000000   0.000000   0.000000   0.000000   0.000000
    13  O    0.000000   0.000000   0.000000   0.000000   0.000000   0.000000
    14  H    0.000000   0.000000   0.000000   0.000000   0.000000   0.000000
               7          8          9         10         11         12
     1  C    0.000000   0.000000   0.000000   0.000000   0.000000   0.000000
     2  C    0.000000   0.000000   0.000000   0.000000   0.000000   0.000000
     3  C    0.000000   0.000000   0.000000   0.000000   0.000000   0.000000
     4  C    0.000000   0.000000   0.000000   0.000000   0.000000   0.000000
     5  H    0.000000   0.000000   0.000000   0.000000   0.000000   0.000000
     6  H    0.000000   0.000000   0.000000   0.000000   0.000000   0.000000
     7  H    0.857061   0.000000   0.000000   0.000000   0.000000   0.000000
     8  H    0.000000   0.933752   0.000000   0.000000   0.000000   0.000000
     9  H    0.000000   0.000000   0.979068   0.000000   0.000000   0.000000
    10  H    0.000000   0.000000   0.000000   0.836908   0.000000   0.000000
    11  H    0.000000   0.000000   0.000000   0.000000   0.893786   0.000000
    12  N    0.000000   0.000000   0.000000   0.000000   0.000000   5.657573
    13  O    0.000000   0.000000   0.000000   0.000000   0.000000   0.000000
    14  H    0.000000   0.000000   0.000000   0.000000   0.000000   0.000000
              13         14
     1  C    0.000000   0.000000
     2  C    0.000000   0.000000
     3  C    0.000000   0.000000
     4  C    0.000000   0.000000
     5  H    0.000000   0.000000
     6  H    0.000000   0.000000
     7  H    0.000000   0.000000
     8  H    0.000000   0.000000
     9  H    0.000000   0.000000
    10  H    0.000000   0.000000
    11  H    0.000000   0.000000
    12  N    0.000000   0.000000
    13  O    7.030678   0.000000
    14  H    0.000000   0.698824
 Mulliken charges:
               1
     1  C    0.085162
     2  C   -0.279122
     3  C    0.373022
     4  C   -0.422882
     5  H    0.050016
     6  H    0.081454
     7  H    0.142939
     8  H    0.066248
     9  H    0.020932
    10  H    0.163092
    11  H    0.106214
    12  N   -0.657573
    13  O   -1.030678
    14  H    0.301176
 Sum of Mulliken charges =  -1.00000
 Mulliken charges with hydrogens summed into heavy atoms:
               1
     1  C    0.216632
     2  C   -0.069935
     3  C    0.393954
     4  C   -0.153577
    12  N   -0.356396
    13  O   -1.030678
 Charge=             -1.0000 electrons
 Dipole moment (field-independent basis, Debye):
    X=             -7.9706    Y=             -0.1671    Z=              2.9548  Tot=              8.5023
 N-N= 1.590002727807D+02 E-N=-2.815305431862D+02  KE=-2.104095890155D+01
 Orbital energies and kinetic energies (alpha):
                                 1                 2
   1         O                -1.031283         -1.085473
   2         O                -0.827135         -0.983732
   3         O                -0.771830         -0.938891
   4         O                -0.642249         -0.778193
   5         O                -0.592097         -0.764682
   6         O                -0.536642         -0.696968
   7         O                -0.474021         -0.641196
   8         O                -0.420466         -0.587337
   9         O                -0.353720         -0.509013
  10         O                -0.348175         -0.537719
  11         O                -0.321648         -0.505929
  12         O                -0.288219         -0.433445
  13         O                -0.279280         -0.445594
  14         O                -0.265748         -0.438163
  15         O                -0.227665         -0.390203
  16         O                -0.138348         -0.338516
  17         O                -0.096793         -0.221054
  18         O                -0.091148         -0.224371
  19         V                 0.253693         -0.244716
  20         V                 0.304283         -0.190435
  21         V                 0.340235         -0.213688
  22         V                 0.347712         -0.223355
  23         V                 0.354348         -0.178640
  24         V                 0.362959         -0.202592
  25         V                 0.365870         -0.222242
  26         V                 0.372000         -0.186167
  27         V                 0.379398         -0.215540
  28         V                 0.398163         -0.222162
  29         V                 0.412308         -0.229048
  30         V                 0.413134         -0.138444
  31         V                 0.420058         -0.208209
  32         V                 0.434840         -0.138277
 Total kinetic energy from orbitals=-2.104095890155D+01
 Calling FoFJK, ICntrl=      2127 FMM=F ISym2X=0 I1Cent= 0 IOpClX= 0 NMat=1 NMatS=1 NMatT=0.
 ***** Axes restored to original set *****
 -------------------------------------------------------------------
 Center     Atomic                   Forces (Hartrees/Bohr)
 Number     Number              X              Y              Z
 -------------------------------------------------------------------
      1        6          -0.024778001   -0.040048029   -0.013078540
      2        6           0.024335428    0.062661599    0.004104465
      3        6           0.006820551    0.087011708    0.068256565
      4        6          -0.029565225   -0.012651170   -0.007512295
      5        1          -0.009842367   -0.000501733    0.003246148
      6        1          -0.004697527    0.001068149   -0.003077470
      7        1          -0.001641894    0.012350937   -0.001840772
      8        1           0.002371142    0.010771503    0.003525262
      9        1          -0.000665340   -0.001871598    0.001326133
     10        1           0.007288998    0.002756087   -0.005789483
     11        1           0.003613891   -0.000537329    0.008885432
     12        7           0.044499914   -0.000712110    0.019128933
     13        8          -0.002717379   -0.040942192   -0.060663770
     14        1          -0.015022192   -0.079355821   -0.016510608
 -------------------------------------------------------------------
 Cartesian Forces:  Max     0.087011708 RMS     0.029041347

 GradGradGradGradGradGradGradGradGradGradGradGradGradGradGradGradGradGrad
 Berny optimization.
 FormGI is forming the generalized inverse of G from B-inverse, IUseBI=4.
 Internal  Forces:  Max     0.102112494 RMS     0.019254588
 Search for a local minimum.
 Step number   1 out of a maximum of   90
 All quantities printed in internal units (Hartrees-Bohrs-Radians)
 Mixed Optimization -- RFO/linear search
 Second derivative matrix not updated -- first step.
 ITU=  0
     Eigenvalues ---    0.00487   0.00881   0.01381   0.02704   0.03274
     Eigenvalues ---    0.04587   0.04863   0.05211   0.05518   0.05715
     Eigenvalues ---    0.05978   0.06985   0.07266   0.08559   0.09356
     Eigenvalues ---    0.09364   0.09739   0.11074   0.12679   0.13995
     Eigenvalues ---    0.21497   0.22325   0.28577   0.29106   0.29929
     Eigenvalues ---    0.31536   0.31536   0.31536   0.31536   0.31812
     Eigenvalues ---    0.31812   0.31812   0.38933   0.40029   0.40989
     Eigenvalues ---    0.46940
 RFO step:  Lambda=-8.75363953D-02 EMin= 4.86663046D-03
 Linear search not attempted -- first point.
 Maximum step size (   0.300) exceeded in Quadratic search.
    -- Step size scaled by   0.605
 Iteration  1 RMS(Cart)=  0.05122246 RMS(Int)=  0.00380614
 Iteration  2 RMS(Cart)=  0.00301693 RMS(Int)=  0.00071454
 Iteration  3 RMS(Cart)=  0.00001710 RMS(Int)=  0.00071431
 Iteration  4 RMS(Cart)=  0.00000005 RMS(Int)=  0.00071431
 Variable       Old X    -DE/DX   Delta X   Delta X   Delta X     New X
                                 (Linear)    (Quad)   (Total)
    R1        2.88176   0.01472   0.00000   0.02021   0.02031   2.90206
    R2        2.11700   0.00045   0.00000   0.00067   0.00067   2.11767
    R3        2.11700  -0.00169   0.00000  -0.00253  -0.00253   2.11447
    R4        2.70301   0.04123   0.00000   0.05139   0.05120   2.75421
    R5        2.88176   0.02227   0.00000   0.03586   0.03592   2.91768
    R6        2.11700  -0.00125   0.00000  -0.00188  -0.00188   2.11512
    R7        2.11700  -0.00050   0.00000  -0.00075  -0.00075   2.11625
    R8        2.70301   0.10211   0.00000   0.12724   0.12701   2.83002
    R9        2.87722   0.02820   0.00000   0.04058   0.04084   2.91806
   R10        2.11189  -0.00219   0.00000  -0.00327  -0.00327   2.10862
   R11        2.70231  -0.07318   0.00000  -0.08896  -0.08896   2.61335
   R12        2.11189  -0.00827   0.00000  -0.01233  -0.01233   2.09956
   R13        2.11189  -0.00930   0.00000  -0.01386  -0.01386   2.09803
   R14        1.89785   0.01083   0.00000   0.01176   0.01176   1.90961
    A1        1.95828   0.00012   0.00000  -0.00130  -0.00200   1.95628
    A2        1.95828  -0.00778   0.00000  -0.02056  -0.01990   1.93838
    A3        1.90176   0.00405   0.00000   0.00529   0.00471   1.90648
    A4        1.91198  -0.00148   0.00000  -0.01013  -0.01044   1.90154
    A5        1.86435   0.00456   0.00000   0.02291   0.02316   1.88751
    A6        1.86435   0.00128   0.00000   0.00660   0.00667   1.87103
    A7        1.95794  -0.00199   0.00000  -0.01675  -0.01756   1.94038
    A8        1.95794  -0.00978   0.00000  -0.02646  -0.02581   1.93213
    A9        1.90176  -0.00146   0.00000   0.00248   0.00201   1.90377
   A10        1.91269  -0.00068   0.00000  -0.00605  -0.00706   1.90563
   A11        1.86435   0.00548   0.00000   0.02324   0.02374   1.88809
   A12        1.86435   0.00980   0.00000   0.02847   0.02835   1.89271
   A13        1.84594  -0.00156   0.00000  -0.00892  -0.00904   1.83689
   A14        1.93220  -0.00014   0.00000  -0.00019  -0.00021   1.93198
   A15        1.93220   0.00231   0.00000   0.00927   0.00929   1.94149
   A16        1.93810  -0.00285   0.00000  -0.00644  -0.00614   1.93197
   A17        1.93810   0.00333   0.00000   0.00917   0.00892   1.94702
   A18        1.87820  -0.00102   0.00000  -0.00269  -0.00269   1.87551
   A19        1.84594   0.01908   0.00000   0.02725   0.02719   1.87312
   A20        1.93220  -0.00331   0.00000   0.00009   0.00035   1.93255
   A21        1.93220  -0.00499   0.00000  -0.00269  -0.00280   1.92939
   A22        1.93810  -0.01036   0.00000  -0.02461  -0.02453   1.91357
   A23        1.93810  -0.00369   0.00000  -0.00012  -0.00037   1.93773
   A24        1.87820   0.00301   0.00000  -0.00006  -0.00017   1.87803
   A25        1.92938  -0.02011   0.00000  -0.02609  -0.02497   1.90442
   A26        2.79272  -0.05265   0.00000  -0.16099  -0.16255   2.63016
   A27        1.49470   0.06470   0.00000   0.16558   0.16826   1.66296
    D1       -2.06087  -0.00815   0.00000  -0.03275  -0.03237  -2.09325
    D2        2.12142  -0.00540   0.00000  -0.01967  -0.01949   2.10193
    D3        0.04002  -0.00381   0.00000  -0.01793  -0.01770   0.02232
    D4        2.06087  -0.00033   0.00000  -0.00262  -0.00247   2.05840
    D5       -0.04002   0.00242   0.00000   0.01045   0.01042  -0.02960
    D6       -2.12142   0.00402   0.00000   0.01220   0.01221  -2.10921
    D7        0.00000   0.00019   0.00000  -0.00174  -0.00168  -0.00168
    D8       -2.10089   0.00294   0.00000   0.01134   0.01121  -2.08968
    D9        2.10089   0.00454   0.00000   0.01309   0.01300   2.11389
   D10        0.00000  -0.00331   0.00000  -0.00714  -0.00681  -0.00681
   D11       -2.48625  -0.01279   0.00000  -0.04829  -0.04674  -2.53299
   D12        2.11913   0.00180   0.00000   0.00774   0.00749   2.12663
   D13       -0.36712  -0.00768   0.00000  -0.03341  -0.03244  -0.39956
   D14       -2.11913   0.00298   0.00000   0.01064   0.01048  -2.10866
   D15        1.67780  -0.00650   0.00000  -0.03050  -0.02945   1.64835
   D16       -2.06067  -0.00943   0.00000  -0.03401  -0.03326  -2.09393
   D17        2.12163  -0.00498   0.00000  -0.02078  -0.02041   2.10122
   D18        0.04022  -0.00510   0.00000  -0.02328  -0.02293   0.01729
   D19        2.06067   0.00047   0.00000   0.00703   0.00727   2.06794
   D20       -0.04022   0.00492   0.00000   0.02026   0.02013  -0.02010
   D21       -2.12163   0.00480   0.00000   0.01775   0.01760  -2.10402
   D22        0.00000  -0.00479   0.00000  -0.01378  -0.01332  -0.01332
   D23       -2.10089  -0.00034   0.00000  -0.00055  -0.00046  -2.10136
   D24        2.10089  -0.00046   0.00000  -0.00306  -0.00299   2.09790
   D25        0.00000   0.00511   0.00000   0.01320   0.01275   0.01275
   D26        2.93111  -0.02212   0.00000  -0.06722  -0.06446   2.86665
   D27        2.11872   0.00511   0.00000   0.00818   0.00686   2.12558
   D28       -1.23335  -0.02212   0.00000  -0.07224  -0.07036  -1.30371
   D29       -2.11872   0.01190   0.00000   0.02680   0.02588  -2.09284
   D30        0.81239  -0.01534   0.00000  -0.05362  -0.05133   0.76105
   D31        0.00000   0.00273   0.00000   0.00920   0.00907   0.00907
   D32        2.09703   0.00466   0.00000   0.01237   0.01213   2.10916
   D33       -2.09703  -0.00085   0.00000  -0.00409  -0.00422  -2.10125
   D34        2.09703   0.00003   0.00000  -0.00001   0.00008   2.09712
   D35       -2.08912   0.00197   0.00000   0.00316   0.00314  -2.08598
   D36        0.00000  -0.00354   0.00000  -0.01330  -0.01320  -0.01320
   D37       -2.09703  -0.00094   0.00000  -0.00158  -0.00150  -2.09853
   D38        0.00000   0.00100   0.00000   0.00159   0.00156   0.00156
   D39        2.08912  -0.00452   0.00000  -0.01487  -0.01478   2.07434
         Item               Value     Threshold  Converged?
 Maximum Force            0.102112     0.000450     NO 
 RMS     Force            0.019255     0.000300     NO 
 Maximum Displacement     0.332184     0.001800     NO 
 RMS     Displacement     0.051170     0.001200     NO 
 Predicted change in Energy=-4.181906D-02
 GradGradGradGradGradGradGradGradGradGradGradGradGradGradGradGradGradGrad

                          Input orientation:                          
 ---------------------------------------------------------------------
 Center     Atomic      Atomic             Coordinates (Angstroms)
 Number     Number       Type             X           Y           Z
 ---------------------------------------------------------------------
      1          6           0       -0.378566   -0.279195    0.027701
      2          6           0        1.583720    1.115681    0.042521
      3          6           0        0.380180    2.082805    0.043523
      4          6           0       -0.869500    1.175924    0.025433
      5          1           0       -0.723515   -0.841681   -0.878069
      6          1           0       -0.725085   -0.819050    0.944480
      7          1           0        2.218961    1.259799    0.952728
      8          1           0        2.211890    1.266321   -0.872261
      9          1           0        0.402642    2.741203   -0.857084
     10          1           0       -1.493323    1.381839    0.921453
     11          1           0       -1.493351    1.375278   -0.871048
     12          7           0        1.078736   -0.294194    0.043618
     13          8           0        0.397074    2.902471    1.157231
     14          1           0        1.958786   -0.708409   -0.230410
 ---------------------------------------------------------------------
                    Distance matrix (angstroms):
                    1          2          3          4          5
     1  C    0.000000
     2  C    2.407585   0.000000
     3  C    2.480925   1.543968   0.000000
     4  C    1.535706   2.454019   1.544170   0.000000
     5  H    1.120624   3.162608   3.258848   2.215482   0.000000
     6  H    1.118930   3.144407   3.233280   2.201233   1.822690
     7  H    3.157740   1.119275   2.210227   3.225756   4.052925
     8  H    3.147858   1.119873   2.204646   3.210761   3.613905
     9  H    3.242829   2.201490   1.115834   2.201654   3.755760
    10  H    2.191007   3.211161   2.184521   1.111039   2.962250
    11  H    2.188098   3.220305   2.201625   1.110229   2.346829
    12  N    1.457466   1.497584   2.477519   2.440738   2.096988
    13  O    3.464167   2.417297   1.382927   2.422012   4.406455
    14  H    2.390410   1.882145   3.218371   3.408133   2.762601
                    6          7          8          9         10
     6  H    0.000000
     7  H    3.604038   0.000000
     8  H    4.034246   1.825014   0.000000
     9  H    4.146421   2.961248   2.334285   0.000000
    10  H    2.331230   3.714421   4.118174   2.933556   0.000000
    11  H    2.949822   4.137723   3.706843   2.336822   1.792513
    12  N    2.083458   2.131077   2.134966   3.237593   3.192987
    13  O    3.892843   2.461598   3.176379   2.020769   2.437522
    14  H    2.931855   2.311136   2.091792   3.835900   4.196783
                   11         12         13         14
    11  H    0.000000
    12  N    3.199904   0.000000
    13  O    3.165429   3.453037   0.000000
    14  H    4.082820   1.010522   4.171684   0.000000
 Stoichiometry    C4H8NO(1-)
 Framework group  C1[X(C4H8NO)]
 Deg. of freedom    36
 Full point group                 C1      NOp   1
 Largest Abelian subgroup         C1      NOp   1
 Largest concise Abelian subgroup C1      NOp   1
                         Standard orientation:                         
 ---------------------------------------------------------------------
 Center     Atomic      Atomic             Coordinates (Angstroms)
 Number     Number       Type             X           Y           Z
 ---------------------------------------------------------------------
      1          6           0       -1.379129   -0.737003   -0.170859
      2          6           0       -0.007924    1.214055    0.160250
      3          6           0        0.919329    0.002839    0.398977
      4          6           0        0.025960   -1.239526    0.191895
      5          1           0       -2.151313   -1.075542    0.567329
      6          1           0       -1.677858   -1.081137   -1.192787
      7          1           0        0.362445    1.846205   -0.685913
      8          1           0       -0.083443    1.842931    1.083791
      9          1           0        1.334235    0.021946    1.434629
     10          1           0        0.442292   -1.866860   -0.625128
     11          1           0       -0.008164   -1.863055    1.109858
     12          7           0       -1.377690    0.720335   -0.190094
     13          8           0        1.989477    0.010842   -0.476925
     14          1           0       -1.839605    1.604238   -0.027295
 ---------------------------------------------------------------------
 Rotational constants (GHZ):      6.0950519      3.3688993      2.4712054
 Standard basis: VSTO-6G (5D, 7F)
 There are    32 symmetry adapted cartesian basis functions of A   symmetry.
 There are    32 symmetry adapted basis functions of A   symmetry.
    32 basis functions,   192 primitive gaussians,    32 cartesian basis functions
    18 alpha electrons       18 beta electrons
       nuclear repulsion energy       158.0557234991 Hartrees.
 Integral buffers will be    262144 words long.
 Regular integral format.
 Two-electron integral symmetry is turned off.
 Do NDO integrals.
 One-electron integrals computed using PRISM.
 NBasis=    32 RedAO= F EigKep=  0.00D+00  NBF=    32
 NBsUse=    32 1.00D-04 EigRej=  0.00D+00 NBFU=    32
 Initial guess from the checkpoint file:  "D:\mindmap\gaussian\calculate\opt_freq\qm2\1924-2-1.chk"
 B after Tr=     0.000000    0.000000    0.000000
         Rot=    0.999986    0.001827   -0.004818    0.000945 Ang=   0.60 deg.
 Overlap will be assumed to be unity.
 Keep J ints in memory in canonical form, NReq=888608.
 Requested convergence on RMS density matrix=1.00D-08 within 128 cycles.
 Requested convergence on MAX density matrix=1.00D-06.
 Requested convergence on             energy=1.00D-06.
 No special actions if energy rises.
 SCF Done:  E(RPM6) = -0.317733421880E-01 A.U. after   13 cycles
            NFock= 12  Conv=0.24D-08     -V/T= 0.9985
 Calling FoFJK, ICntrl=      2127 FMM=F ISym2X=0 I1Cent= 0 IOpClX= 0 NMat=1 NMatS=1 NMatT=0.
 ***** Axes restored to original set *****
 -------------------------------------------------------------------
 Center     Atomic                   Forces (Hartrees/Bohr)
 Number     Number              X              Y              Z
 -------------------------------------------------------------------
      1        6          -0.006873580   -0.026532478   -0.015168636
      2        6           0.009837461    0.003026362   -0.001913686
      3        6           0.003990446    0.055396313    0.051753188
      4        6          -0.017174161   -0.015218134   -0.008252903
      5        1          -0.005908738    0.001446750    0.004264041
      6        1          -0.001089498    0.000974242   -0.003308484
      7        1          -0.005729688    0.004194027   -0.004718895
      8        1          -0.001280421    0.002632022    0.006896982
      9        1          -0.000391014   -0.003834457   -0.002925066
     10        1           0.005520127    0.001953883   -0.003686385
     11        1           0.002995049   -0.000099480    0.006420021
     12        7           0.047753657    0.045961943    0.023855088
     13        8          -0.001077654   -0.027111688   -0.038789341
     14        1          -0.030571985   -0.042789305   -0.014425924
 -------------------------------------------------------------------
 Cartesian Forces:  Max     0.055396313 RMS     0.020669553

 GradGradGradGradGradGradGradGradGradGradGradGradGradGradGradGradGradGrad
 Berny optimization.
 Using GEDIIS/GDIIS optimizer.
 FormGI is forming the generalized inverse of G from B-inverse, IUseBI=4.
 Internal  Forces:  Max     0.047320502 RMS     0.009994577
 Search for a local minimum.
 Step number   2 out of a maximum of   90
 All quantities printed in internal units (Hartrees-Bohrs-Radians)
 Mixed Optimization -- RFO/linear search
 Update second derivatives using D2CorX and points    1    2
 DE= -3.98D-02 DEPred=-4.18D-02 R= 9.52D-01
 TightC=F SS=  1.41D+00  RLast= 3.38D-01 DXNew= 5.0454D-01 1.0127D+00
 Trust test= 9.52D-01 RLast= 3.38D-01 DXMaxT set to 5.05D-01
 ITU=  1  0
 Use linear search instead of GDIIS.
     Eigenvalues ---    0.00489   0.00873   0.01445   0.02671   0.03316
     Eigenvalues ---    0.04526   0.04873   0.05209   0.05687   0.05798
     Eigenvalues ---    0.06025   0.06878   0.07491   0.08379   0.09142
     Eigenvalues ---    0.09346   0.09399   0.10689   0.11544   0.13978
     Eigenvalues ---    0.21982   0.22488   0.28421   0.28862   0.30040
     Eigenvalues ---    0.31329   0.31536   0.31536   0.31538   0.31771
     Eigenvalues ---    0.31812   0.31820   0.38030   0.39876   0.46348
     Eigenvalues ---    0.62350
 RFO step:  Lambda=-4.14409836D-02 EMin= 4.88807839D-03
 Quartic linear search produced a step of  1.35091.
 Iteration  1 RMS(Cart)=  0.06190072 RMS(Int)=  0.03739956
 Iteration  2 RMS(Cart)=  0.04173376 RMS(Int)=  0.00623696
 Iteration  3 RMS(Cart)=  0.00432757 RMS(Int)=  0.00405215
 Iteration  4 RMS(Cart)=  0.00002496 RMS(Int)=  0.00405201
 Iteration  5 RMS(Cart)=  0.00000040 RMS(Int)=  0.00405201
 Variable       Old X    -DE/DX   Delta X   Delta X   Delta X     New X
                                 (Linear)    (Quad)   (Total)
    R1        2.90206   0.00053   0.02743  -0.03310  -0.00548   2.89658
    R2        2.11767  -0.00235   0.00091  -0.01561  -0.01471   2.10297
    R3        2.11447  -0.00284  -0.00342  -0.01303  -0.01645   2.09802
    R4        2.75421   0.01288   0.06917  -0.02951   0.03887   2.79309
    R5        2.91768   0.01185   0.04852   0.01726   0.06635   2.98402
    R6        2.11512  -0.00655  -0.00254  -0.03691  -0.03945   2.07568
    R7        2.11625  -0.00600  -0.00101  -0.03550  -0.03651   2.07974
    R8        2.83002   0.01751   0.17159  -0.13525   0.03549   2.86552
[...]
 ! R14   R(12,14)                1.0265         -DE/DX =    0.0                 !
 ! A1    A(4,1,5)              112.7241         -DE/DX =    0.0                 !
 ! A2    A(4,1,6)              110.6001         -DE/DX =    0.0                 !
 ! A3    A(4,1,12)             108.8457         -DE/DX =    0.0                 !
 ! A4    A(5,1,6)              107.3826         -DE/DX =    0.0                 !
 ! A5    A(5,1,12)             110.4398         -DE/DX =    0.0                 !
 ! A6    A(6,1,12)             106.6743         -DE/DX =    0.0                 !
 ! A7    A(3,2,7)              107.6586         -DE/DX =    0.0                 !
 ! A8    A(3,2,8)              111.7508         -DE/DX =    0.0                 !
 ! A9    A(3,2,12)             108.1137         -DE/DX =    0.0                 !
 ! A10   A(7,2,8)              108.0666         -DE/DX =    0.0                 !
 ! A11   A(7,2,12)             109.2692         -DE/DX =    0.0                 !
 ! A12   A(8,2,12)             111.8761         -DE/DX =    0.0                 !
 ! A13   A(2,3,4)              101.2627         -DE/DX =    0.0                 !
 ! A14   A(2,3,9)              107.1857         -DE/DX =    0.0                 !
 ! A15   A(2,3,13)             113.598          -DE/DX =    0.0                 !
 ! A16   A(4,3,9)              106.6712         -DE/DX =    0.0                 !
 ! A17   A(4,3,13)             114.0704         -DE/DX =    0.0                 !
 ! A18   A(9,3,13)             113.1022         -DE/DX =    0.0                 !
 ! A19   A(1,4,3)              107.1822         -DE/DX =    0.0                 !
 ! A20   A(1,4,10)             112.3918         -DE/DX =    0.0                 !
 ! A21   A(1,4,11)             113.0934         -DE/DX =    0.0                 !
 ! A22   A(3,4,10)             106.0681         -DE/DX =    0.0                 !
 ! A23   A(3,4,11)             110.0519         -DE/DX =    0.0                 !
 ! A24   A(10,4,11)            107.8242         -DE/DX =    0.0                 !
 ! A25   A(1,12,2)             104.8856         -DE/DX =    0.0                 !
 ! A26   A(1,12,14)            107.8851         -DE/DX =    0.0                 !
 ! A27   A(2,12,14)            107.5974         -DE/DX =    0.0                 !
 ! D1    D(5,1,4,3)           -133.1546         -DE/DX =    0.0                 !
 ! D2    D(5,1,4,10)           110.6949         -DE/DX =    0.0                 !
 ! D3    D(5,1,4,11)           -11.6882         -DE/DX =    0.0                 !
 ! D4    D(6,1,4,3)            106.6179         -DE/DX =    0.0                 !
 ! D5    D(6,1,4,10)            -9.5327         -DE/DX =    0.0                 !
 ! D6    D(6,1,4,11)          -131.9157         -DE/DX =    0.0                 !
 ! D7    D(12,1,4,3)           -10.2662         -DE/DX =    0.0                 !
 ! D8    D(12,1,4,10)         -126.4168         -DE/DX =    0.0                 !
 ! D9    D(12,1,4,11)          111.2002         -DE/DX =    0.0                 !
 ! D10   D(4,1,12,2)            26.3754         -DE/DX =    0.0                 !
 ! D11   D(4,1,12,14)          -88.1116         -DE/DX =    0.0                 !
 ! D12   D(5,1,12,2)           150.6255         -DE/DX =    0.0                 !
 ! D13   D(5,1,12,14)           36.1384         -DE/DX =    0.0                 !
 ! D14   D(6,1,12,2)           -92.9865         -DE/DX =    0.0                 !
 ! D15   D(6,1,12,14)          152.5264         -DE/DX =    0.0                 !
 ! D16   D(7,2,3,4)            -92.6556         -DE/DX =    0.0                 !
 ! D17   D(7,2,3,9)            155.766          -DE/DX =    0.0                 !
 ! D18   D(7,2,3,13)            30.0833         -DE/DX =    0.0                 !
 ! D19   D(8,2,3,4)            148.8275         -DE/DX =    0.0                 !
 ! D20   D(8,2,3,9)             37.2491         -DE/DX =    0.0                 !
 ! D21   D(8,2,3,13)           -88.4336         -DE/DX =    0.0                 !
 ! D22   D(12,2,3,4)            25.2826         -DE/DX =    0.0                 !
 ! D23   D(12,2,3,9)           -86.2957         -DE/DX =    0.0                 !
 ! D24   D(12,2,3,13)          148.0215         -DE/DX =    0.0                 !
 ! D25   D(3,2,12,1)           -32.3903         -DE/DX =    0.0                 !
 ! D26   D(3,2,12,14)           82.2978         -DE/DX =    0.0                 !
 ! D27   D(7,2,12,1)            84.5113         -DE/DX =    0.0                 !
 ! D28   D(7,2,12,14)         -160.8005         -DE/DX =    0.0                 !
 ! D29   D(8,2,12,1)          -155.8595         -DE/DX =    0.0                 !
 ! D30   D(8,2,12,14)          -41.1713         -DE/DX =    0.0                 !
 ! D31   D(2,3,4,1)             -8.748          -DE/DX =    0.0                 !
 ! D32   D(2,3,4,10)           111.5175         -DE/DX =    0.0                 !
 ! D33   D(2,3,4,11)          -132.1086         -DE/DX =    0.0                 !
 ! D34   D(9,3,4,1)            103.2224         -DE/DX =    0.0                 !
 ! D35   D(9,3,4,10)          -136.5121         -DE/DX =    0.0                 !
 ! D36   D(9,3,4,11)           -20.1382         -DE/DX =    0.0                 !
 ! D37   D(13,3,4,1)          -131.1603         -DE/DX =    0.0                 !
 ! D38   D(13,3,4,10)          -10.8948         -DE/DX =    0.0                 !
 ! D39   D(13,3,4,11)          105.4791         -DE/DX =    0.0                 !
 --------------------------------------------------------------------------------
 GradGradGradGradGradGradGradGradGradGradGradGradGradGradGradGradGradGrad

 1|1|UNPC-DESKTOP-KC5UJLK|Freq|RPM6|ZDO|C4H8N1O1(1-)|23122|15-Mar-2022|
 0||#N Geom=AllCheck Guess=TCheck SCRF=Check GenChk RPM6/ZDO Freq||Ener
 gy Calculation(GC)||-1,1|C,-0.2993387844,-0.3082363656,0.11320583|C,1.
 6278397773,1.0884183104,0.2432198451|C,0.4250021788,2.1047518471,-0.03
 51250346|C,-0.8413168124,1.12017299,0.0402513816|H,-0.8101624014,-0.99
 37343481,-0.5832459491|H,-0.4234203868,-0.7208173296,1.1346937529|H,1.
 829016584,1.0971108522,1.327430827|H,2.5426644379,1.3917204833,-0.2739
 694291|H,0.5115994982,2.4359620296,-1.1020398377|H,-1.3932843996,1.404
 2447574,0.9442979266|H,-1.495018459,1.2860723361,-0.8155964059|N,1.183
 6885014,-0.2818427908,-0.1659992144|O,0.3765653948,3.0953143879,0.8037
 076696|H,1.3148121313,-0.36034582,-1.181015262||Version=IA32W-G09RevD.
 01|State=1-A|HF=-0.0853443|RMSD=7.108e-010|RMSF=8.432e-006|ZeroPoint=0
 .1124788|Thermal=0.1181076|Dipole=-0.3445772,-2.2747795,-1.3042501|Dip
 oleDeriv=0.1415852,-0.2325154,-0.0322497,0.0308255,0.0192414,0.0252496
 ,-0.1106755,-0.003321,-0.1120474,-0.6381956,0.3452068,0.0176716,0.1268
 134,-0.353104,0.0015567,0.0108815,0.1947696,-0.387811,1.1366865,0.0199
 914,0.0144321,0.0224058,1.9227136,0.4318327,0.0187157,0.5075314,0.9220
 964,-0.9249579,-0.3440866,-0.023825,-0.2119378,-0.7862889,-0.1007513,0
 .0388113,0.0314904,-0.5192168,0.0205821,-0.0001841,-0.0013318,-0.00215
 22,0.0334134,-0.0151696,0.0055237,-0.0210193,0.0577518,0.058503,0.0152
 822,0.0322997,0.0159246,0.0718314,0.0142884,-0.011627,-0.0313062,0.104
 1956,0.1407322,-0.0107996,-0.0380481,0.0111852,0.0811881,0.0280799,0.0
 569945,-0.0348508,0.1555096,0.0821887,-0.0463723,0.0188083,0.0301176,0
 .0656988,-0.0332459,0.0084399,-0.0093494,0.0991773,-0.1333746,-0.00370
 81,0.0050776,0.0009354,-0.143009,-0.0175259,0.0060502,0.0274509,-0.216
 9875,0.1642582,0.041147,0.0332061,-0.0282973,0.1292386,0.0479776,-0.05
 49495,-0.0191666,0.1550444,0.1096161,0.042749,-0.0330738,-0.0275908,0.
 0931879,-0.0310842,-0.0032486,0.0247479,0.0985804,-0.4145196,0.1990872
 ,0.0481887,0.1133724,-0.6137027,-0.0706244,0.0181904,-0.0239892,-0.295
 3185,-0.8630896,0.043371,0.0229628,-0.0060893,-1.707575,-0.3601554,-0.
 0049279,-0.6080633,-1.1498032,0.1199746,-0.0691697,-0.0641143,-0.07550
 52,0.1871501,0.0795662,0.02182,-0.034922,0.0888327|Polar=36.5708087,2.
 1036639,43.8326667,-0.8179042,6.5679213,33.4760241|HyperPolar=-16.3748
 62,-22.1910839,-9.0082049,-142.9031846,-14.1194684,-2.9059665,-65.8406
 42,0.664168,-35.0627311,-52.4201656|PG=C01 [X(C4H8N1O1)]|NImag=0||0.45
 209552,0.02471430,0.47310358,-0.00579662,0.00555967,0.42924780,-0.0306
 5171,-0.03973769,-0.00495981,0.43523550,-0.02475147,-0.00620969,0.0013
 0022,0.06633037,0.41655282,-0.00659706,0.00240916,0.00506904,-0.006498
 64,0.02643419,0.43086879,0.01435972,-0.01108750,-0.00252250,-0.0788229
 9,0.01708477,-0.01287152,0.31904576,-0.00859304,-0.04166168,0.00160667
 ,0.01429670,-0.05019929,0.01228237,-0.01328435,0.48819061,0.00390863,-
 0.00220999,0.00303148,-0.02284598,0.02441154,-0.06385163,-0.01326831,0
 .10057866,0.52112731,-0.07145053,0.05450277,-0.00270453,-0.04308122,-0
 .00276384,-0.00126748,-0.08046227,-0.00778146,0.01973450,0.41066917,0.
 03163448,-0.17265850,0.01010105,0.00028258,0.00532165,-0.00145134,-0.0
 0658784,-0.04917292,0.01961571,-0.07040962,0.41085720,-0.00313068,0.01
 011862,-0.05969551,-0.00846076,-0.00003271,0.00654987,0.01002753,0.004
 63176,-0.06238411,0.00839444,0.00428553,0.42731342,-0.06863321,-0.0461
 5546,-0.04697639,-0.00369367,0.00111093,0.00023655,-0.00198779,0.00062
 092,-0.00010260,0.00581896,0.00492737,0.00294326,0.09872072,-0.0482587
 2,-0.10044342,-0.06781791,-0.00019730,0.00011913,-0.00009297,0.0009785
 7,-0.00152939,-0.00031856,-0.00472245,-0.03036676,-0.01708173,0.063146
 78,0.13022928,-0.05266528,-0.07009060,-0.10847643,0.00104873,0.0001918
 6,0.00019536,0.00038722,0.00026385,0.00011251,-0.00030965,-0.00727927,
 0.00113367,0.06307070,0.08673166,0.12489263,-0.03421619,-0.00705918,0.
 01147617,-0.00135753,-0.00086618,0.00060488,-0.00061545,0.00000289,-0.
 00000081,0.00236040,0.00786355,-0.00697343,0.00287632,0.00054770,-0.00
 995872,0.05391031,-0.00782884,-0.05690410,0.05817697,-0.00046022,-0.00
 012434,-0.00001669,0.00084941,-0.00096831,0.00039441,0.00582193,-0.023
 31315,0.02509353,-0.00111448,0.00463805,-0.01145852,0.00797069,0.07622
 609,0.01442187,0.05818340,-0.18442676,0.00017428,-0.00004566,-0.000265
 66,0.00034944,0.00086391,0.00028867,-0.00290259,0.01246164,-0.00532409
 ,-0.00315413,0.00141598,-0.02346401,-0.02876164,-0.07827031,0.22560533
 ,-0.00118988,-0.00059765,-0.00068091,-0.03933992,-0.00197313,-0.030663
 61,-0.00905821,0.00934056,-0.02247458,-0.00028581,-0.00008652,0.000522
 37,-0.00000409,0.00005081,0.00008310,-0.00018380,-0.00024786,-0.000062
 01,0.05015119,-0.00148359,-0.00070009,-0.00065505,-0.00072119,-0.03275
 528,0.00800720,0.01032585,-0.00085435,0.01759240,-0.00020447,-0.000696
 85,-0.00031489,-0.00015867,-0.00001318,0.00005808,-0.00008267,-0.00012
 596,-0.00001391,0.00238794,0.04867648,-0.00064676,-0.00026218,-0.00026
 148,-0.02811691,-0.00162562,-0.20835797,-0.01497711,0.01244989,-0.0093
 7239,0.00065213,-0.00002912,-0.00007670,0.00003523,-0.00001894,-0.0000
 2880,0.00004117,-0.00000122,0.00012325,0.04656991,0.00472488,0.2573181
 4,-0.00077443,-0.00081758,-0.00007337,-0.15810088,-0.04474971,0.071473
 68,-0.02689743,0.00539977,0.01031991,-0.00158640,0.00009500,-0.0007736
 8,-0.00009206,-0.00001841,0.00002586,-0.00000883,0.00006004,-0.0000075
 1,0.00068181,-0.00075888,0.00469838,0.20035826,-0.00002955,-0.00453680
 ,-0.00050871,-0.03554689,-0.04574067,0.02020020,0.01192441,0.00519766,
 -0.00541655,0.00277466,-0.00038253,0.00064535,-0.00062966,0.00005468,0
 .00018228,-0.00024265,0.00001720,-0.00000033,-0.00237885,0.00326062,0.
 00346355,0.05644571,0.06512514,-0.00096743,-0.00160834,0.00012238,0.07
 526007,0.02594295,-0.07670204,0.00182680,-0.00181175,0.00387220,-0.000
 60323,-0.00043667,-0.00024480,-0.00018668,0.00002999,0.00013798,-0.000
 08676,-0.00001294,-0.00002980,0.01855015,0.00576269,-0.01922703,-0.087
 62523,-0.02680557,0.08683443,-0.00181010,0.00000177,0.00064012,-0.0073
 3922,0.01671991,-0.01850321,-0.03369436,-0.00302788,0.01018461,-0.0128
 7106,-0.02030570,0.01822122,0.00021784,-0.00012659,-0.00005453,0.00003
 818,-0.00010201,-0.00003629,-0.00156346,0.00135267,-0.00013876,0.00013
 098,0.00024624,-0.00060471,0.04825168,-0.00015039,-0.00009034,-0.00000
 776,0.01072757,-0.01028559,0.01822422,-0.00381586,-0.05048921,0.051151
 63,-0.01376440,-0.00965363,0.01549337,-0.00004035,-0.00004763,0.000006
 71,-0.00002222,0.00004928,-0.00003982,0.00145401,-0.00121672,0.0001157
 3,0.00006471,0.00006526,0.00029636,0.00440473,0.07391153,0.00006575,0.
 00028453,0.00005610,-0.00864290,0.01277312,-0.01080254,0.01043298,0.04
 677334,-0.15952819,0.00862201,0.01003027,-0.00590136,0.00001592,0.0000
 9472,-0.00001670,-0.00002593,-0.00008253,-0.00001083,-0.00051881,0.000
 29448,-0.00006899,-0.00024666,0.00018948,-0.00015593,-0.01404857,-0.05
 128671,0.22656215,-0.00551829,0.01092374,0.00945346,0.00002055,0.00035
 094,-0.00032986,-0.02377810,-0.00797339,0.02073337,-0.07701439,0.02817
 832,0.07731503,-0.00006477,0.00028005,0.00001097,0.00025583,0.00040765
 ,0.00002972,-0.00026472,0.00008202,-0.00002922,0.00007335,-0.00009191,
 0.00003388,-0.00105388,-0.00120048,0.00012816,0.10233116,0.01854360,-0
 .01949758,-0.02051949,-0.00049883,-0.00049925,-0.00006481,-0.01165111,
 0.00535041,0.01189685,0.02259114,-0.04346136,-0.03562942,0.00047939,-0
 .00179565,0.00002395,0.00048793,-0.00022743,-0.00023499,-0.00000201,0.
 00004645,-0.00000395,-0.00005919,-0.00002320,0.00002287,-0.00101023,-0
 .00107923,0.00011640,-0.03098930,0.06101885,0.00545433,-0.00690135,-0.
 00023160,-0.00046970,-0.00014505,-0.00015076,0.01484523,0.00797150,-0.
 00088794,0.07385155,-0.04229253,-0.16242574,-0.00002841,0.00007367,-0.
 00008837,-0.00028275,0.00051160,0.00085411,-0.00009514,0.00001785,0.00
 016051,0.00001539,0.00004628,-0.00003127,-0.00026046,-0.00010713,-0.00
 009555,-0.09797901,0.04596628,0.19128708,-0.00771003,0.01051910,-0.011
 35514,-0.00188844,0.00012823,0.00062912,-0.02135089,-0.00820866,-0.018
 99114,-0.09701546,0.02076909,-0.08686029,0.00039625,-0.00003924,0.0000
 7780,-0.00000597,0.00057909,-0.00004823,0.00014200,-0.00004866,0.00003
 016,-0.00021415,0.00018510,-0.00005018,-0.00003189,-0.00021626,0.00018
 469,0.00586370,-0.00067741,0.00513710,0.12377845,0.01997597,-0.0160351
 0,0.02061219,-0.00175918,-0.00056245,0.00028491,-0.01152246,0.00256778
 ,-0.00975826,0.01569383,-0.03612117,0.01977881,0.00025648,-0.00018787,
 0.00053417,0.00083673,-0.00244315,0.00030245,0.00009963,-0.00002916,0.
 00006336,-0.00013435,0.00018542,-0.00003221,-0.00036919,0.00006317,0.0
 0010816,-0.00156080,0.00412926,-0.00379134,-0.02250535,0.05152203,-0.0
 0716843,0.00718646,-0.00281833,0.00074096,-0.00009565,-0.00012154,-0.0
 0896738,-0.00476825,-0.00047744,-0.08628205,0.02503760,-0.14978236,0.0
 0019498,-0.00013546,0.00070763,-0.00014077,0.00022200,-0.00000305,0.00
 000444,0.00003332,-0.00005496,0.00000226,-0.00006518,0.00006397,0.0006
 7960,0.00026746,0.00015933,-0.00925397,-0.00006413,-0.02560634,0.10933
 354,-0.02849214,0.17702467,-0.22340281,0.00943659,0.01074364,-0.071110
 23,-0.05020348,0.00032040,0.00275261,0.00668186,0.00148384,-0.03636758
 ,0.02950777,0.00536082,-0.03434152,-0.01090906,-0.00242157,-0.01797684
 ,-0.00558345,0.01909172,0.00047100,-0.00791185,-0.00771880,-0.01352214
 ,-0.03137430,-0.00438041,-0.00017340,0.00020377,-0.00004147,-0.0011350
 9,0.00157236,-0.00068173,-0.00070536,0.00107861,0.00048493,0.44147233,
 -0.00302233,-0.05902380,-0.00525422,-0.04198033,-0.21991031,-0.0271060
 9,0.00318278,-0.04362141,-0.00936511,0.03036893,-0.00498052,-0.0061806
 8,-0.02153833,-0.00059094,0.00057235,-0.00954824,0.00266188,0.00533735
 ,-0.00561436,-0.00989003,-0.01593227,-0.01547255,-0.02200501,-0.001452
 20,0.00098985,-0.00079823,0.00091803,0.00021526,-0.00216275,0.00030572
 ,-0.00012756,-0.00120868,-0.00011205,0.06182434,0.40471169,0.04279846,
 -0.00732824,-0.07141378,-0.00902608,-0.05319977,-0.07388421,0.00241599
 ,-0.00598795,0.00173720,0.00317404,-0.00291349,0.00518716,-0.01678427,
 -0.00309545,0.00437445,0.03317411,0.00587832,-0.01265655,-0.01217694,-
 0.03243496,-0.01751390,0.00407970,0.00861318,0.00494220,-0.00045558,0.
 00013869,0.00017400,0.00001112,0.00007841,-0.00008365,0.00022550,-0.00
 004262,-0.00005357,-0.05516241,0.07952169,0.40080381,-0.00343549,-0.00
 293913,0.00026726,-0.00239627,0.02559237,0.01303370,-0.05896897,0.0112
 5278,0.01112551,0.00119828,-0.02676899,-0.01651546,0.00045753,-0.00047
 488,0.00002837,0.00009916,-0.00020502,-0.00005599,0.00031836,-0.001249
 20,0.00026207,0.00003954,-0.00044948,-0.00048575,0.00983616,0.00235647
 ,0.00409085,0.00041910,0.00130363,0.00048218,-0.00103654,0.00001049,0.
 00031930,-0.00127363,0.00602305,0.00080846,0.05462897,-0.00345962,0.00
 223028,0.00028394,0.03204638,-0.04544860,-0.01764667,0.01286839,-0.259
 45874,-0.19634022,-0.03256283,-0.04532325,-0.02091106,0.00034180,-0.00
 028963,-0.00010901,0.00025079,0.00019111,-0.00044919,-0.00099718,-0.00
 060677,-0.00192152,0.00010512,-0.00177112,0.00079119,0.00139139,-0.000
 42344,-0.02033776,0.00133248,-0.00172184,-0.00167040,-0.00049974,-0.00
 184654,0.00105323,0.00437714,-0.00520381,0.00101187,-0.01469724,0.3584
 1071,-0.00302928,0.00317468,0.00032743,0.01664444,-0.02250440,0.008110
 91,0.01166991,-0.17398593,-0.23351170,-0.02015179,-0.02687688,0.005683
 20,0.00022844,0.00003225,-0.00006910,0.00006050,-0.00022640,-0.0005314
 6,0.00118168,-0.00163577,-0.00238918,-0.00160333,-0.00000542,0.0001260
 3,0.00441274,-0.03425955,-0.05025560,-0.00009748,-0.00166622,-0.002658
 95,0.00170109,0.00037958,0.00090901,0.00241584,0.00040633,0.00219537,-
 0.01326251,0.25581791,0.27181917,-0.01766178,-0.00170440,0.04248861,0.
 00252653,-0.00201007,-0.00956689,-0.00052159,0.00127297,0.00019305,0.0
 0008814,0.00090063,-0.00007058,0.00032940,-0.00025720,0.00067706,-0.00
 517575,-0.00014695,0.00096130,0.00012535,-0.00152922,-0.00066175,-0.00
 008792,-0.00083276,-0.00068045,0.00006254,-0.00000129,-0.00001606,-0.0
 0013453,-0.00008997,0.00001152,-0.00022168,-0.00010043,0.00005257,-0.0
 4468816,-0.00530035,0.00691798,0.00011391,-0.00049657,-0.00017003,0.06
 524545,0.00270946,0.00242708,-0.00287781,-0.00278156,-0.01025832,-0.04
 146336,0.00073478,-0.00335035,-0.00223170,0.00045570,-0.00004792,0.000
 10362,-0.00124667,0.00022341,0.00037259,-0.00013911,0.00032285,0.00048
 946,-0.00143542,-0.00509524,-0.00102259,-0.00015963,0.00055335,-0.0006
 8635,-0.00016497,-0.00000546,0.00012437,0.00004538,-0.00007673,0.00001
 490,0.00014233,-0.00003371,-0.00006723,-0.00870080,-0.03797803,0.00975
 976,0.00024513,0.00126123,0.00134888,0.01029560,0.05205782,0.01335265,
 0.00148407,-0.01053048,-0.00484782,-0.01340496,-0.01665764,0.00065196,
 -0.00086841,-0.00015623,-0.00020729,-0.00025238,-0.00003241,0.00050743
 ,0.00018289,0.00058919,0.00087388,-0.00020828,-0.00015926,-0.00023955,
 -0.00143632,-0.00025047,-0.00028543,-0.00053861,0.00029169,-0.00003617
 ,0.00000676,-0.00011590,-0.00002620,0.00007824,-0.00004152,-0.00001406
 ,0.00005282,0.00005282,0.03050517,-0.02165888,-0.24380857,-0.00009813,
 0.00042797,0.00024518,-0.04013645,0.03613555,0.27057369||0.00000242,0.
 00000958,0.00000191,-0.00000814,0.00000882,0.00002173,0.00001308,-0.00
 000073,-0.00002762,-0.00000994,-0.00001718,-0.00000716,-0.00000040,-0.
 00000092,-0.00000156,-0.00000137,0.00000086,-0.00000222,-0.00000040,-0
 .00000252,-0.00001312,0.00000577,0.00000142,-0.00000608,-0.00000005,-0
 .00000715,0.00001159,0.00000064,0.00000253,0.00000302,0.00000343,-0.00
 000235,0.00000441,-0.00000567,-0.00000155,0.00000694,0.00000036,0.0000
 0859,0.00001404,0.00000028,0.00000060,-0.00000588|||@


 "MATHEMATICS IS THE ART OF GIVING THE SAME NAME
 TO DIFFERENT THINGS."
                    - H. POINCARE
 Job cpu time:       0 days  0 hours  0 minutes  5.0 seconds.
 File lengths (MBytes):  RWF=      8 Int=      0 D2E=      0 Chk=      2 Scr=      1
 Normal termination of Gaussian 09 at Tue Mar 15 11:23:38 2022.
