 Entering Link 1 = C:\G09W\l1.exe PID=     16404.
  
 Copyright (c) 1988,1990,1992,1993,1995,1998,2003,2009,2013,
            Gaussian, Inc.  All Rights Reserved.
  
 This is part of the Gaussian(R) 09 program.  It is based on
 the Gaussian(R) 03 system (copyright 2003, Gaussian, Inc.),
 the Gaussian(R) 98 system (copyright 1998, Gaussian, Inc.),
 the Gaussian(R) 94 system (copyright 1995, Gaussian, Inc.),
 the Gaussian 92(TM) system (copyright 1992, Gaussian, Inc.),
 the Gaussian 90(TM) system (copyright 1990, Gaussian, Inc.),
 the Gaussian 88(TM) system (copyright 1988, Gaussian, Inc.),
 the Gaussian 86(TM) system (copyright 1986, Carnegie Mellon
 University), and the Gaussian 82(TM) system (copyright 1983,
 Carnegie Mellon University). Gaussian is a federally registered
 trademark of Gaussian, Inc.
  
 This software contains proprietary and confidential information,
 including trade secrets, belonging to Gaussian, Inc.
  
 This software is provided under written license and may be
 used, copied, transmitted, or stored only in accord with that
 written license.
  
 The following legend is applicable only to US Government
 contracts under FAR:
  
                    RESTRICTED RIGHTS LEGEND
  
 Use, reproduction and disclosure by the US Government is
 subject to restrictions as set forth in subparagraphs (a)
 and (c) of the Commercial Computer Software - Restricted
 Rights clause in FAR 52.227-19.
  
 Gaussian, Inc.
 340 Quinnipiac St., Bldg. 40, Wallingford CT 06492
  
  
 ---------------------------------------------------------------
 Warning -- This program may not be used in any manner that
 competes with the business of Gaussian, Inc. or will provide
 assistance to any competitor of Gaussian, Inc.  The licensee
 of this program is prohibited from giving any competitor of
 Gaussian, Inc. access to this program.  By using this program,
 the user acknowledges that Gaussian, Inc. is engaged in the
 business of creating and licensing software in the field of
 computational chemistry and represents and warrants to the
 licensee that it is not a competitor of Gaussian, Inc. and that
 it will not use this program in any manner prohibited above.
 ---------------------------------------------------------------
  

 Cite this work as:
 Gaussian 09, Revision D.01,
 M. J. Frisch, G. W. Trucks, H. B. Schlegel, G. E. Scuseria, 
 M. A. Robb, J. R. Cheeseman, G. Scalmani, V. Barone, B. Mennucci, 
 G. A. Petersson, H. Nakatsuji, M. Caricato, X. Li, H. P. Hratchian, 
 A. F. Izmaylov, J. Bloino, G. Zheng, J. L. Sonnenberg, M. Hada, 
 M. Ehara, K. Toyota, R. Fukuda, J. Hasegawa, M. Ishida, T. Nakajima, 
 Y. Honda, O. Kitao, H. Nakai, T. Vreven, J. A. Montgomery, Jr., 
 J. E. Peralta, F. Ogliaro, M. Bearpark, J. J. Heyd, E. Brothers, 
 K. N. Kudin, V. N. Staroverov, T. Keith, R. Kobayashi, J. Normand, 
 K. Raghavachari, A. Rendell, J. C. Burant, S. S. Iyengar, J. Tomasi, 
 M. Cossi, N. Rega, J. M. Millam, M. Klene, J. E. Knox, J. B. Cross, 
 V. Bakken, C. Adamo, J. Jaramillo, R. Gomperts, R. E. Stratmann, 
 O. Yazyev, A. J. Austin, R. Cammi, C. Pomelli, J. W. Ochterski, 
 R. L. Martin, K. Morokuma, V. G. Zakrzewski, G. A. Voth, 
 P. Salvador, J. J. Dannenberg, S. Dapprich, A. D. Daniels, 
 O. Farkas, J. B. Foresman, J. V. Ortiz, J. Cioslowski, 
 and D. J. Fox, Gaussian, Inc., Wallingford CT, 2013.
 
 ******************************************
 Gaussian 09:  IA32W-G09RevD.01 24-Apr-2013
                02-Apr-2022 
 ******************************************
 %nprocshared=4
 Will use up to    4 processors via shared memory.
 %mem=1GB
 %chk=D:\mindmap\gaussian\calculate\opt_freq\qm2\6-311G.chk
 ----------------------------------------------------------------------
 # opt freq /B3LYP/6-311G pop=full geom=connectivity scrf=(solvent=wate
 r)
 ----------------------------------------------------------------------
 1/14=-1,18=20,19=15,26=3,38=1,57=2/1,3;
 2/9=110,12=2,17=6,18=5,40=1/2;
 3/5=4,6=6,11=2,16=1,25=1,30=1,70=2201,71=1,72=1,74=-5/1,2,3;
 4//1;
 5/5=2,38=5,53=1/2;
 6/7=3,28=1/1;
 7//1,2,3,16;
 1/14=-1,18=20,19=15,26=3/3(2);
 2/9=110/2;
 99//99;
 2/9=110/2;
 3/5=4,6=6,11=2,16=1,25=1,30=1,70=2205,71=1,72=1,74=-5/1,2,3;
 4/5=5,16=3,69=1/1;
 5/5=2,38=5,53=1/2;
 7//1,2,3,16;
 1/14=-1,18=20,19=15,26=3/3(-5);
 2/9=110/2;
 6/7=3,19=2,28=1/1;
 99/9=1/99;
 ----------------------
 Energy Calculation(GC)
 ----------------------
 Symbolic Z-matrix:
 Charge =  0 Multiplicity = 1
 C                    -0.37672  -0.26043   0.02906 
 C                     1.55564   1.07896   0.02906 
 C                     0.37908   2.04912   0.02906 
 C                    -0.87227   1.18177   0.02906 
 H                    -0.70088  -0.81941  -0.88607 
 H                    -0.70088  -0.81941   0.9442 
 H                     2.19248   1.18646   0.94442 
 H                     2.19248   1.18646  -0.8863 
 H                     0.41047   2.70831  -0.87284 
 H                    -1.50055   1.38372   0.93097 
 H                    -1.50055   1.38372  -0.87284 
 N                     1.05365  -0.26043   0.02906 
 O                     0.41925   2.8926    1.18311 
 H                     0.45318   3.81153   0.90738 
 H                     1.99745  -0.53262  -0.18016 
 

 GradGradGradGradGradGradGradGradGradGradGradGradGradGradGradGradGradGrad
 Berny optimization.
 Initialization pass.
                           ----------------------------
                           !    Initial Parameters    !
                           ! (Angstroms and Degrees)  !
 --------------------------                            --------------------------
 ! Name  Definition              Value          Derivative Info.                !
 --------------------------------------------------------------------------------
 ! R1    R(1,4)                  1.525          estimate D2E/DX2                !
 ! R2    R(1,5)                  1.1203         estimate D2E/DX2                !
 ! R3    R(1,6)                  1.1203         estimate D2E/DX2                !
 ! R4    R(1,12)                 1.4304         estimate D2E/DX2                !
 ! R5    R(2,3)                  1.525          estimate D2E/DX2                !
 ! R6    R(2,7)                  1.1203         estimate D2E/DX2                !
 ! R7    R(2,8)                  1.1203         estimate D2E/DX2                !
 ! R8    R(2,12)                 1.4304         estimate D2E/DX2                !
 ! R9    R(3,4)                  1.5226         estimate D2E/DX2                !
 ! R10   R(3,9)                  1.1176         estimate D2E/DX2                !
 ! R11   R(3,13)                 1.43           estimate D2E/DX2                !
 ! R12   R(4,10)                 1.1176         estimate D2E/DX2                !
 ! R13   R(4,11)                 1.1176         estimate D2E/DX2                !
 ! R14   R(12,15)                1.0043         estimate D2E/DX2                !
 ! R15   R(13,14)                0.96           estimate D2E/DX2                !
 ! A1    A(4,1,5)              112.2011         estimate D2E/DX2                !
 ! A2    A(4,1,6)              112.2012         estimate D2E/DX2                !
 ! A3    A(4,1,12)             108.9629         estimate D2E/DX2                !
 ! A4    A(5,1,6)              109.5484         estimate D2E/DX2                !
 ! A5    A(5,1,12)             106.8196         estimate D2E/DX2                !
 ! A6    A(6,1,12)             106.8196         estimate D2E/DX2                !
 ! A7    A(3,2,7)              112.1817         estimate D2E/DX2                !
 ! A8    A(3,2,8)              112.1816         estimate D2E/DX2                !
 ! A9    A(3,2,12)             108.9629         estimate D2E/DX2                !
 ! A10   A(7,2,8)              109.5889         estimate D2E/DX2                !
 ! A11   A(7,2,12)             106.8196         estimate D2E/DX2                !
 ! A12   A(8,2,12)             106.8196         estimate D2E/DX2                !
 ! A13   A(2,3,4)              105.7643         estimate D2E/DX2                !
 ! A14   A(2,3,9)              110.7068         estimate D2E/DX2                !
 ! A15   A(2,3,13)             110.7069         estimate D2E/DX2                !
 ! A16   A(4,3,9)              111.0451         estimate D2E/DX2                !
 ! A17   A(4,3,13)             111.045          estimate D2E/DX2                !
 ! A18   A(9,3,13)             107.6128         estimate D2E/DX2                !
 ! A19   A(1,4,3)              105.7644         estimate D2E/DX2                !
 ! A20   A(1,4,10)             110.7069         estimate D2E/DX2                !
 ! A21   A(1,4,11)             110.7069         estimate D2E/DX2                !
 ! A22   A(3,4,10)             111.045          estimate D2E/DX2                !
 ! A23   A(3,4,11)             111.045          estimate D2E/DX2                !
 ! A24   A(10,4,11)            107.6128         estimate D2E/DX2                !
 ! A25   A(1,12,2)             110.5455         estimate D2E/DX2                !
 ! A26   A(1,12,15)            160.0109         estimate D2E/DX2                !
 ! A27   A(2,12,15)             85.64           estimate D2E/DX2                !
 ! A28   A(3,13,14)            109.5            estimate D2E/DX2                !
 ! D1    D(5,1,4,3)           -118.0794         estimate D2E/DX2                !
 ! D2    D(5,1,4,10)           121.5484         estimate D2E/DX2                !
 ! D3    D(5,1,4,11)             2.2928         estimate D2E/DX2                !
 ! D4    D(6,1,4,3)            118.0794         estimate D2E/DX2                !
 ! D5    D(6,1,4,10)            -2.2928         estimate D2E/DX2                !
 ! D6    D(6,1,4,11)          -121.5484         estimate D2E/DX2                !
 ! D7    D(12,1,4,3)             0.0            estimate D2E/DX2                !
 ! D8    D(12,1,4,10)         -120.3722         estimate D2E/DX2                !
 ! D9    D(12,1,4,11)          120.3722         estimate D2E/DX2                !
 ! D10   D(4,1,12,2)             0.0            estimate D2E/DX2                !
 ! D11   D(4,1,12,15)         -142.4517         estimate D2E/DX2                !
 ! D12   D(5,1,12,2)           121.4173         estimate D2E/DX2                !
 ! D13   D(5,1,12,15)          -21.0344         estimate D2E/DX2                !
 ! D14   D(6,1,12,2)          -121.4173         estimate D2E/DX2                !
 ! D15   D(6,1,12,15)           96.131          estimate D2E/DX2                !
 ! D16   D(7,2,3,4)           -118.0675         estimate D2E/DX2                !
 ! D17   D(7,2,3,9)            121.5603         estimate D2E/DX2                !
 ! D18   D(7,2,3,13)             2.3047         estimate D2E/DX2                !
 ! D19   D(8,2,3,4)            118.0675         estimate D2E/DX2                !
 ! D20   D(8,2,3,9)             -2.3047         estimate D2E/DX2                !
 ! D21   D(8,2,3,13)          -121.5603         estimate D2E/DX2                !
 ! D22   D(12,2,3,4)             0.0            estimate D2E/DX2                !
 ! D23   D(12,2,3,9)          -120.3722         estimate D2E/DX2                !
 ! D24   D(12,2,3,13)          120.3722         estimate D2E/DX2                !
 ! D25   D(3,2,12,1)             0.0            estimate D2E/DX2                !
 ! D26   D(3,2,12,15)          167.9401         estimate D2E/DX2                !
 ! D27   D(7,2,12,1)           121.3939         estimate D2E/DX2                !
 ! D28   D(7,2,12,15)          -70.6659         estimate D2E/DX2                !
 ! D29   D(8,2,12,1)          -121.3939         estimate D2E/DX2                !
 ! D30   D(8,2,12,15)           46.5462         estimate D2E/DX2                !
 ! D31   D(2,3,4,1)              0.0            estimate D2E/DX2                !
 ! D32   D(2,3,4,10)           120.1512         estimate D2E/DX2                !
 ! D33   D(2,3,4,11)          -120.1512         estimate D2E/DX2                !
 ! D34   D(9,3,4,1)            120.1511         estimate D2E/DX2                !
 ! D35   D(9,3,4,10)          -119.6977         estimate D2E/DX2                !
 ! D36   D(9,3,4,11)            -0.0001         estimate D2E/DX2                !
 ! D37   D(13,3,4,1)          -120.1511         estimate D2E/DX2                !
 ! D38   D(13,3,4,10)            0.0            estimate D2E/DX2                !
 ! D39   D(13,3,4,11)          119.6977         estimate D2E/DX2                !
 ! D40   D(2,3,13,14)          121.7257         estimate D2E/DX2                !
 ! D41   D(4,3,13,14)         -121.1036         estimate D2E/DX2                !
 ! D42   D(9,3,13,14)            0.6213         estimate D2E/DX2                !
 --------------------------------------------------------------------------------
 Trust Radius=3.00D-01 FncErr=1.00D-07 GrdErr=1.00D-06
 Number of steps in this run=     95 maximum allowed number of steps=    100.
 GradGradGradGradGradGradGradGradGradGradGradGradGradGradGradGradGradGrad

                          Input orientation:                          
 ---------------------------------------------------------------------
 Center     Atomic      Atomic             Coordinates (Angstroms)
 Number     Number       Type             X           Y           Z
 ---------------------------------------------------------------------
      1          6           0       -0.376723   -0.260434    0.029065
      2          6           0        1.555639    1.078956    0.029065
      3          6           0        0.379084    2.049123    0.029064
      4          6           0       -0.872267    1.181765    0.029064
      5          1           0       -0.700884   -0.819413   -0.886067
      6          1           0       -0.700884   -0.819413    0.944197
      7          1           0        2.192478    1.186455    0.944425
      8          1           0        2.192478    1.186455   -0.886295
      9          1           0        0.410473    2.708314   -0.872840
     10          1           0       -1.500546    1.383719    0.930967
     11          1           0       -1.500546    1.383718   -0.872840
     12          7           0        1.053648   -0.260434    0.029065
     13          8           0        0.419246    2.892605    1.183111
     14          1           0        0.453178    3.811528    0.907379
     15          1           0        1.997447   -0.532625   -0.180160
 ---------------------------------------------------------------------
                    Distance matrix (angstroms):
                    1          2          3          4          5
     1  C    0.000000
     2  C    2.351167   0.000000
     3  C    2.430082   1.524961   0.000000
     4  C    1.524960   2.430082   1.522560   0.000000
     5  H    1.120270   3.087583   3.198796   2.207159   0.000000
     6  H    1.120270   3.087583   3.198796   2.207160   1.830264
     7  H    3.087421   1.120270   2.206916   3.198526   3.968092
     8  H    3.087421   1.120270   2.206915   3.198526   3.520660
     9  H    3.201027   2.186240   1.117564   2.188425   3.698668
    10  H    2.186240   3.201027   2.188424   1.117564   2.965613
    11  H    2.186240   3.201028   2.188425   1.117564   2.343805
    12  N    1.430371   1.430371   2.406053   2.406052   2.056285
    13  O    3.450658   2.431570   1.430000   2.434503   4.394914
    14  H    4.247476   3.074704   1.970533   3.073093   5.098424
    15  H    2.398863   1.684091   3.054226   3.349353   2.803844
                    6          7          8          9         10
     6  H    0.000000
     7  H    3.520660   0.000000
     8  H    3.968092   1.830720   0.000000
     9  H    4.120873   2.965476   2.343454   0.000000
    10  H    2.343806   3.698313   4.120653   2.942833   0.000000
    11  H    2.965614   4.120654   3.698313   2.325199   1.803807
    12  N    2.056285   2.056284   2.056284   3.168686   3.168686
    13  O    3.884694   2.472301   3.215236   2.064213   2.454774
    14  H    4.772718   3.149214   3.624009   2.094776   3.116385
    15  H    2.937246   2.063483   1.868663   3.674504   4.140402
                   11         12         13         14         15
    11  H    0.000000
    12  N    3.168687   0.000000
    13  O    3.192065   3.417008   0.000000
    14  H    3.588939   4.208667   0.960000   0.000000
    15  H    4.048225   1.004300   4.010165   4.737000   0.000000
 Stoichiometry    C4H9NO
 Framework group  C1[X(C4H9NO)]
 Deg. of freedom    39
 Full point group                 C1      NOp   1
 Largest Abelian subgroup         C1      NOp   1
 Largest concise Abelian subgroup C1      NOp   1
                         Standard orientation:                         
 ---------------------------------------------------------------------
 Center     Atomic      Atomic             Coordinates (Angstroms)
 Number     Number       Type             X           Y           Z
 ---------------------------------------------------------------------
      1          6           0       -1.420613   -0.721950   -0.186433
      2          6           0       -0.096030    1.188863    0.163226
      3          6           0        0.821128   -0.002953    0.416012
      4          6           0       -0.036641   -1.240350    0.189580
      5          1           0       -2.204121   -1.033433    0.551197
      6          1           0       -1.726872   -1.040934   -1.215733
      7          1           0        0.256871    1.820157   -0.692305
      8          1           0       -0.220497    1.827659    1.075066
      9          1           0        1.222763    0.021651    1.458620
     10          1           0        0.383162   -1.875450   -0.628565
     11          1           0       -0.087189   -1.868058    1.112824
     12          7           0       -1.397137    0.708228   -0.186163
     13          8           0        1.936894    0.019068   -0.478126
     14          1           0        2.752558    0.039521    0.027714
     15          1           0       -1.698939    1.657083   -0.054984
 ---------------------------------------------------------------------
 Rotational constants (GHZ):      6.1662113      3.2693238      2.4364259
 Standard basis: 6-311G (5D, 7F)
 There are   105 symmetry adapted cartesian basis functions of A   symmetry.
 There are   105 symmetry adapted basis functions of A   symmetry.
   105 basis functions,   201 primitive gaussians,   105 cartesian basis functions
    24 alpha electrons       24 beta electrons
       nuclear repulsion energy       257.8347547159 Hartrees.
 NAtoms=   15 NActive=   15 NUniq=   15 SFac= 1.00D+00 NAtFMM=   60 NAOKFM=F Big=F
 Integral buffers will be    262144 words long.
 Raffenetti 2 integral format.
 Two-electron integral symmetry is turned on.
 ------------------------------------------------------------------------------
 Polarizable Continuum Model (PCM)
 =================================
 Model                : PCM (using non-symmetric T matrix).
 Atomic radii         : UFF (Universal Force Field).
 Polarization charges : Total charges.
 Charge compensation  : None.
 Solution method      : On-the-fly selection.
 Cavity type          : Scaled VdW (van der Waals Surface) (Alpha=1.100).
 Cavity algorithm     : GePol (No added spheres)
                        Default sphere list used, NSphG=   15.
                        Lebedev-Laikov grids with approx.  5.0 points / Ang**2.
                        Smoothing algorithm: Karplus/York (Gamma=1.0000).
                        Polarization charges: spherical gaussians, with
                                              point-specific exponents (IZeta= 3).
                        Self-potential: point-specific (ISelfS= 7).
                        Self-field    : sphere-specific E.n sum rule (ISelfD= 2).
 1st derivatives      : Analytical E(r).r(x)/FMM algorithm (CHGder, D1EAlg=3).
                        Cavity 1st derivative terms included.
 Solvent              : Water, Eps=  78.355300 Eps(inf)=   1.777849
 ------------------------------------------------------------------------------
 Spheres list:
 ISph  on   Nord     Re0    Alpha      Xe            Ye            Ze
    1   C      1    1.9255  1.100     -1.420613     -0.721950     -0.186433
    2   C      2    1.9255  1.100     -0.096030      1.188863      0.163226
    3   C      3    1.9255  1.100      0.821128     -0.002953      0.416012
    4   C      4    1.9255  1.100     -0.036641     -1.240350      0.189580
    5   H      5    1.4430  1.100     -2.204121     -1.033433      0.551197
    6   H      6    1.4430  1.100     -1.726872     -1.040934     -1.215733
    7   H      7    1.4430  1.100      0.256871      1.820157     -0.692305
    8   H      8    1.4430  1.100     -0.220497      1.827659      1.075066
    9   H      9    1.4430  1.100      1.222763      0.021651      1.458620
   10   H     10    1.4430  1.100      0.383162     -1.875450     -0.628565
   11   H     11    1.4430  1.100     -0.087189     -1.868058      1.112824
   12   N     12    1.8300  1.100     -1.397137      0.708228     -0.186163
   13   O     13    1.7500  1.100      1.936894      0.019068     -0.478126
   14   H     14    1.4430  1.100      2.752558      0.039521      0.027714
   15   H     15    1.4430  1.100     -1.698939      1.657083     -0.054984
 ------------------------------------------------------------------------------
 One-electron integrals computed using PRISM.
 NBasis=   105 RedAO= T EigKep=  1.09D-03  NBF=   105
 NBsUse=   105 1.00D-06 EigRej= -1.00D+00 NBFU=   105
 ExpMin= 1.03D-01 ExpMax= 8.59D+03 ExpMxC= 1.30D+03 IAcc=1 IRadAn=         1 AccDes= 0.00D+00
 Harris functional with IExCor=  402 and IRadAn=       1 diagonalized for initial guess.
 HarFok:  IExCor=  402 AccDes= 0.00D+00 IRadAn=         1 IDoV= 1 UseB2=F ITyADJ=14
 ICtDFT=  3500011 ScaDFX=  1.000000  1.000000  1.000000  1.000000
 FoFCou: FMM=F IPFlag=           0 FMFlag=      100000 FMFlg1=           0
         NFxFlg=           0 DoJE=T BraDBF=F KetDBF=T FulRan=T
         wScrn=  0.000000 ICntrl=     500 IOpCl=  0 I1Cent=   200000004 NGrid=           0
         NMat0=    1 NMatS0=      1 NMatT0=    0 NMatD0=    1 NMtDS0=    0 NMtDT0=    0
 Petite list used in FoFCou.
 Keep R1 ints in memory in canonical form, NReq=20040798.
 Requested convergence on RMS density matrix=1.00D-08 within 128 cycles.
 Requested convergence on MAX density matrix=1.00D-06.
 Requested convergence on             energy=1.00D-06.
 No special actions if energy rises.
 Inv3:  Mode=1 IEnd=     4106700.
 Iteration    1 A*A^-1 deviation from unit magnitude is 2.78D-15 for    232.
 Iteration    1 A*A^-1 deviation from orthogonality  is 2.40D-15 for   1094    232.
 Iteration    1 A^-1*A deviation from unit magnitude is 2.44D-15 for    209.
 Iteration    1 A^-1*A deviation from orthogonality  is 2.50D-07 for   1101    834.
 Iteration    2 A*A^-1 deviation from unit magnitude is 2.66D-15 for    523.
 Iteration    2 A*A^-1 deviation from orthogonality  is 2.84D-15 for   1126    303.
 Iteration    2 A^-1*A deviation from unit magnitude is 1.11D-15 for    460.
 Iteration    2 A^-1*A deviation from orthogonality  is 3.98D-16 for    132     83.
 Error on total polarization charges =  0.00853
 SCF Done:  E(RB3LYP) =  -287.713539876     A.U. after   11 cycles
            NFock= 11  Conv=0.67D-08     -V/T= 2.0022

 **********************************************************************

            Population analysis using the SCF density.

 **********************************************************************

 Orbital symmetries:
       Occupied  (A) (A) (A) (A) (A) (A) (A) (A) (A) (A) (A) (A)
                 (A) (A) (A) (A) (A) (A) (A) (A) (A) (A) (A) (A)
       Virtual   (A) (A) (A) (A) (A) (A) (A) (A) (A) (A) (A) (A)
                 (A) (A) (A) (A) (A) (A) (A) (A) (A) (A) (A) (A)
                 (A) (A) (A) (A) (A) (A) (A) (A) (A) (A) (A) (A)
                 (A) (A) (A) (A) (A) (A) (A) (A) (A) (A) (A) (A)
                 (A) (A) (A) (A) (A) (A) (A) (A) (A) (A) (A) (A)
                 (A) (A) (A) (A) (A) (A) (A) (A) (A) (A) (A) (A)
                 (A) (A) (A) (A) (A) (A) (A) (A) (A)
 The electronic state is 1-A.
 Alpha  occ. eigenvalues --  -19.11353 -14.26641 -10.22827 -10.20527 -10.18608
 Alpha  occ. eigenvalues --  -10.17388  -1.03347  -0.92775  -0.77216  -0.72740
 Alpha  occ. eigenvalues --   -0.60952  -0.57453  -0.53577  -0.51533  -0.45326
 Alpha  occ. eigenvalues --   -0.42121  -0.41353  -0.39144  -0.38244  -0.35814
 Alpha  occ. eigenvalues --   -0.34772  -0.31641  -0.27006  -0.18306
 Alpha virt. eigenvalues --    0.02494   0.04704   0.07168   0.07742   0.09509
 Alpha virt. eigenvalues --    0.10438   0.11024   0.13170   0.14866   0.15577
 Alpha virt. eigenvalues --    0.18288   0.22424   0.22604   0.26594   0.32748
 Alpha virt. eigenvalues --    0.32860   0.35865   0.37302   0.39434   0.42203
 Alpha virt. eigenvalues --    0.43780   0.45223   0.48474   0.50439   0.52995
 Alpha virt. eigenvalues --    0.53780   0.55586   0.55991   0.56938   0.57442
 Alpha virt. eigenvalues --    0.58288   0.61398   0.62746   0.65139   0.65712
 Alpha virt. eigenvalues --    0.68770   0.70682   0.74474   0.83935   0.85842
 Alpha virt. eigenvalues --    0.90965   0.92736   0.96353   1.00617   1.10784
 Alpha virt. eigenvalues --    1.27788   1.33785   1.54391   2.17667   2.19799
 Alpha virt. eigenvalues --    2.22288   2.26293   2.27847   2.29261   2.30089
 Alpha virt. eigenvalues --    2.31613   2.32833   2.67561   2.70622   2.76327
 Alpha virt. eigenvalues --    2.78620   2.83375   2.93405   2.95312   2.96536
 Alpha virt. eigenvalues --    3.00954   3.03774   3.10415   3.20021   3.78961
 Alpha virt. eigenvalues --    3.94702   4.15709   4.84828   4.89117   5.06900
 Alpha virt. eigenvalues --   23.27415  23.43135  23.49251  23.67950  35.42137
 Alpha virt. eigenvalues --   49.83770
     Molecular Orbital Coefficients:
                           1         2         3         4         5
                           O         O         O         O         O
     Eigenvalues --   -19.11353 -14.26641 -10.22827 -10.20527 -10.18608
   1 1   C  1S          0.00000  -0.00001  -0.00005   0.56292   0.00027
   2        2S         -0.00001   0.00010  -0.00004   0.46384   0.00031
   3        2PX        -0.00002  -0.00003   0.00000   0.00008  -0.00003
   4        2PY        -0.00001   0.00018  -0.00005   0.00076  -0.00001
   5        2PZ         0.00003  -0.00001  -0.00001   0.00004  -0.00001
   6        3S          0.00007  -0.00058   0.00014   0.01673  -0.00093
   7        3PX         0.00012   0.00009  -0.00020   0.00028  -0.00003
   8        3PY         0.00006   0.00006   0.00005  -0.00023  -0.00003
   9        3PZ        -0.00007   0.00004  -0.00005   0.00007   0.00000
  10        4S          0.00092   0.00869  -0.00702  -0.02172   0.00624
  11        4PX         0.00009   0.00144  -0.00178  -0.00278   0.00155
  12        4PY         0.00013   0.00305  -0.00180  -0.00037   0.00130
  13        4PZ         0.00013   0.00024   0.00023  -0.00084   0.00027
  14 2   C  1S          0.00000  -0.00001   0.00131  -0.00028   0.56282
  15        2S          0.00002   0.00010   0.00126  -0.00015   0.46386
  16        2PX         0.00005  -0.00021   0.00020  -0.00001  -0.00054
  17        2PY        -0.00006  -0.00003  -0.00029   0.00003  -0.00004
  18        2PZ         0.00002  -0.00006   0.00008   0.00000  -0.00002
  19        3S          0.00006  -0.00053  -0.00136  -0.00091   0.01704
  20        3PX        -0.00028   0.00005  -0.00045   0.00007   0.00021
  21        3PY         0.00031  -0.00009   0.00058   0.00004  -0.00031
  22        3PZ        -0.00005   0.00003  -0.00019   0.00002   0.00000
  23        4S         -0.00311   0.00715   0.01645   0.00531  -0.02256
  24        4PX        -0.00074  -0.00195   0.00193  -0.00060  -0.00038
  25        4PY         0.00055  -0.00209  -0.00641  -0.00163   0.00299
  26        4PZ         0.00118  -0.00051  -0.00021  -0.00001  -0.00005
  27 3   C  1S         -0.00001   0.00000   0.56295   0.00005  -0.00137
  28        2S          0.00009   0.00001   0.46370   0.00005  -0.00095
  29        2PX         0.00013   0.00006   0.00078   0.00005  -0.00022
  30        2PY         0.00000   0.00008  -0.00004  -0.00003   0.00030
  31        2PZ        -0.00018   0.00001  -0.00051   0.00000  -0.00008
  32        3S         -0.00104   0.00002   0.01865   0.00009  -0.00114
  33        3PX         0.00023  -0.00001  -0.00092   0.00003   0.00044
  34        3PY         0.00000  -0.00039   0.00005   0.00015  -0.00070
  35        3PZ         0.00015   0.00000   0.00000   0.00005   0.00023
  36        4S          0.00895  -0.00155  -0.03496  -0.00374   0.00967
  37        4PX         0.00120   0.00067   0.00760   0.00142  -0.00345
  38        4PY        -0.00007  -0.00048   0.00036  -0.00073   0.00313
  39        4PZ        -0.00350  -0.00003   0.00431   0.00000  -0.00110
  40 4   C  1S          0.00000   0.00000   0.00101   0.00176  -0.00008
  41        2S          0.00002   0.00000   0.00103   0.00162  -0.00007
  42        2PX         0.00005  -0.00006   0.00014  -0.00034   0.00004
  43        2PY         0.00008  -0.00007   0.00025   0.00013  -0.00003
  44        2PZ         0.00002  -0.00002   0.00006  -0.00010   0.00002
  45        3S          0.00010   0.00015  -0.00150  -0.00098   0.00019
  46        3PX        -0.00030   0.00035  -0.00015   0.00078  -0.00011
  47        3PY        -0.00037   0.00012  -0.00040  -0.00031  -0.00007
  48        3PZ        -0.00005   0.00010  -0.00010   0.00022  -0.00006
  49        4S         -0.00325  -0.00281   0.01645   0.00916  -0.00423
  50        4PX        -0.00075   0.00066   0.00209  -0.00387   0.00126
  51        4PY        -0.00057  -0.00118   0.00686   0.00231  -0.00155
  52        4PZ         0.00102   0.00032  -0.00066  -0.00090   0.00055
  53 5   H  1S          0.00003   0.00001   0.00003  -0.00032   0.00009
  54        2S         -0.00013  -0.00076   0.00021   0.00162  -0.00073
  55        3S         -0.00010   0.00010  -0.00016   0.00185   0.00028
  56 6   H  1S         -0.00006   0.00003   0.00002  -0.00032   0.00010
  57        2S          0.00012  -0.00084   0.00057   0.00156  -0.00081
  58        3S         -0.00004   0.00009   0.00002   0.00183   0.00022
  59 7   H  1S         -0.00006   0.00001  -0.00002   0.00009  -0.00031
  60        2S          0.00053  -0.00066  -0.00127  -0.00067   0.00159
  61        3S          0.00051   0.00007   0.00047   0.00022   0.00200
  62 8   H  1S          0.00003   0.00001  -0.00005   0.00009  -0.00032
  63        2S         -0.00009  -0.00066  -0.00082  -0.00073   0.00164
  64        3S         -0.00013   0.00005   0.00046   0.00018   0.00184
  65 9   H  1S         -0.00003   0.00000  -0.00032   0.00002  -0.00005
  66        2S         -0.00066   0.00021   0.00191   0.00026  -0.00053
  67        3S          0.00031  -0.00004   0.00059   0.00004   0.00041
  68 10  H  1S         -0.00007   0.00000   0.00002  -0.00004   0.00004
  69        2S          0.00052   0.00025  -0.00138  -0.00054   0.00017
  70        3S          0.00049  -0.00018   0.00055   0.00040  -0.00004
  71 11  H  1S          0.00002   0.00001  -0.00003  -0.00004   0.00005
  72        2S          0.00000   0.00016  -0.00073  -0.00060   0.00008
  73        3S         -0.00014  -0.00018   0.00080   0.00035  -0.00017
  74 12  N  1S          0.00000   0.55732   0.00000  -0.00003  -0.00003
  75        2S         -0.00001   0.46587   0.00001   0.00002   0.00003
  76        2PX        -0.00002   0.00036   0.00000  -0.00003   0.00032
  77        2PY         0.00002   0.00023  -0.00005  -0.00034   0.00015
  78        2PZ         0.00001   0.00067  -0.00002   0.00000   0.00009
  79        3S          0.00004   0.01566   0.00003  -0.00016  -0.00018
  80        3PX         0.00008   0.00036  -0.00009   0.00009  -0.00070
  81        3PY        -0.00010  -0.00041   0.00030   0.00075  -0.00039
  82        3PZ        -0.00002  -0.00010   0.00006   0.00002  -0.00020
  83        4S          0.00030  -0.01607  -0.00187   0.00234   0.00217
  84        4PX         0.00007  -0.00300  -0.00119  -0.00109   0.00204
  85        4PY         0.00067   0.00299  -0.00376  -0.00214   0.00219
  86        4PZ        -0.00009  -0.00067  -0.00072  -0.00024   0.00059
  87 13  O  1S          0.55130   0.00000  -0.00001   0.00000   0.00000
  88        2S          0.46982   0.00000   0.00003  -0.00001   0.00002
  89        2PX         0.00032   0.00003  -0.00021   0.00003  -0.00004
  90        2PY         0.00001   0.00000   0.00000   0.00000  -0.00001
  91        2PZ         0.00184   0.00001   0.00009   0.00002   0.00001
  92        3S          0.01319   0.00001  -0.00043   0.00003  -0.00012
  93        3PX        -0.00044  -0.00012   0.00042  -0.00014   0.00019
  94        3PY        -0.00002   0.00002  -0.00001   0.00000   0.00001
  95        3PZ        -0.00021  -0.00005  -0.00002  -0.00006  -0.00005
  96        4S         -0.00985   0.00017   0.00384   0.00017  -0.00043
  97        4PX         0.00189   0.00027  -0.00234   0.00033  -0.00019
  98        4PY         0.00007  -0.00002  -0.00003   0.00004  -0.00010
  99        4PZ        -0.00178   0.00020  -0.00001   0.00029  -0.00006
 100 14  H  1S         -0.00002   0.00004  -0.00017   0.00003   0.00002
 101        2S          0.00088  -0.00034   0.00099  -0.00041   0.00015
 102        3S         -0.00003   0.00005  -0.00002   0.00004   0.00015
 103 15  H  1S          0.00005  -0.00007  -0.00008  -0.00002   0.00009
 104        2S         -0.00037  -0.00021   0.00180  -0.00035  -0.00017
 105        3S         -0.00012   0.00019   0.00052   0.00012   0.00007
                           6         7         8         9        10
                           O         O         O         O         O
     Eigenvalues --   -10.17388  -1.03347  -0.92775  -0.77216  -0.72740
   1 1   C  1S         -0.00182  -0.00438  -0.04554  -0.04345  -0.06656
   2        2S         -0.00133  -0.00677  -0.07142  -0.06800  -0.10506
   3        2PX         0.00031   0.00305   0.01114   0.03175  -0.01209
   4        2PY        -0.00012   0.00247   0.03431  -0.02195   0.02049
   5        2PZ         0.00008   0.00051   0.00374   0.00815  -0.00327
   6        3S         -0.00129   0.01801   0.19116   0.18663   0.28663
   7        3PX        -0.00061   0.00362   0.01880   0.04630  -0.02031
   8        3PY         0.00031   0.00296   0.05759  -0.03854   0.03105
   9        3PZ        -0.00016   0.00122   0.00606   0.01172  -0.00563
  10        4S          0.01314  -0.00739   0.06378   0.06234   0.19727
  11        4PX         0.00503  -0.00262  -0.00599  -0.00243   0.00016
  12        4PY         0.00011  -0.00165  -0.01225  -0.00518  -0.00286
  13        4PZ         0.00115  -0.00197  -0.00545   0.00941   0.00624
  14 2   C  1S          0.00008  -0.01126  -0.05299   0.01786   0.06303
  15        2S          0.00006  -0.01757  -0.08265   0.02813   0.09941
  16        2PX         0.00009   0.00471  -0.03972   0.04122  -0.02338
  17        2PY         0.00007  -0.00765  -0.02028  -0.02139   0.00832
  18        2PZ         0.00003  -0.00130  -0.00828   0.01038  -0.00930
  19        3S          0.00007   0.04678   0.21819  -0.07363  -0.26859
  20        3PX        -0.00036   0.00686  -0.06031   0.06020  -0.02906
  21        3PY        -0.00006  -0.01131  -0.02669  -0.03592   0.01025
  22        3PZ        -0.00012  -0.00104  -0.01164   0.01505  -0.01310
  23        4S         -0.00300   0.01960   0.06677  -0.06195  -0.18195
  24        4PX         0.00088   0.00300  -0.00156   0.01120   0.01290
  25        4PY         0.00125   0.00006   0.01792  -0.01182  -0.01301
  26        4PZ         0.00044  -0.01233   0.00775  -0.00271  -0.00410
  27 3   C  1S         -0.00108  -0.04326  -0.01732  -0.04634   0.06056
  28        2S         -0.00070  -0.06763  -0.02684  -0.07298   0.09573
  29        2PX        -0.00021   0.03599  -0.02744  -0.02835   0.02188
  30        2PY        -0.00026   0.00075   0.00400  -0.03130  -0.02320
  31        2PZ        -0.00008  -0.02695   0.00013   0.00179  -0.00581
  32        3S         -0.00137   0.18117   0.06901   0.20077  -0.25999
  33        3PX         0.00041   0.05039  -0.03934  -0.03798   0.02903
  34        3PY         0.00046   0.00148   0.00792  -0.04604  -0.03572
  35        3PZ         0.00024  -0.03901  -0.00056  -0.00018  -0.00553
  36        4S          0.01186   0.02155   0.06034   0.10700  -0.22382
  37        4PX        -0.00412  -0.01973  -0.01266  -0.01088   0.01625
  38        4PY        -0.00379   0.00032   0.00287   0.00012  -0.00314
  39        4PZ        -0.00155   0.02611  -0.01603   0.01158   0.00258
  40 4   C  1S          0.56285  -0.00987  -0.02293  -0.07955   0.00004
  41        2S          0.46377  -0.01536  -0.03555  -0.12492   0.00006
  42        2PX        -0.00014   0.00611  -0.01012  -0.00525  -0.03876
  43        2PY         0.00003   0.00744   0.01548   0.01890  -0.01568
  44        2PZ         0.00003  -0.00107  -0.00197  -0.00009  -0.01230
  45        3S          0.01795   0.04002   0.09228   0.32955  -0.00154
  46        3PX        -0.00002   0.00943  -0.01603  -0.00965  -0.05572
  47        3PY         0.00036   0.01165   0.02154   0.02899  -0.02368
  48        3PZ        -0.00005  -0.00074  -0.00327   0.00007  -0.01795
  49        4S         -0.02934   0.02427   0.04074   0.24404   0.01547
  50        4PX         0.00129   0.00117  -0.00527  -0.00632   0.00571
  51        4PY        -0.00515   0.00293   0.00580   0.01415   0.00818
  52        4PZ         0.00066  -0.01118   0.00665  -0.01043  -0.00491
  53 5   H  1S         -0.00001   0.00117   0.01980   0.02545   0.04932
  54        2S         -0.00093   0.00263   0.01282   0.02245   0.03640
  55        3S          0.00039   0.00022  -0.00499  -0.00333   0.00100
  56 6   H  1S         -0.00001   0.00169   0.01940   0.02534   0.04883
  57        2S         -0.00103   0.00071   0.01018   0.02797   0.03935
  58        3S          0.00029  -0.00100  -0.00626   0.00177   0.00311
  59 7   H  1S          0.00005   0.00553   0.02285  -0.01595  -0.04447
  60        2S          0.00010   0.00172   0.01456  -0.00769  -0.03412
  61        3S         -0.00003  -0.00268  -0.00519  -0.00344   0.00414
  62 8   H  1S          0.00005   0.00340   0.02493  -0.01692  -0.04793
  63        2S          0.00003   0.00497   0.01414  -0.00693  -0.03524
  64        3S         -0.00018   0.00019  -0.00786  -0.00073   0.00195
  65 9   H  1S         -0.00006   0.01767   0.00644   0.02897  -0.04556
  66        2S         -0.00059   0.01142   0.00546   0.02273  -0.03426
  67        3S          0.00060  -0.00300   0.00118  -0.00544  -0.00017
  68 10  H  1S         -0.00038   0.00526   0.00880   0.05074   0.00233
  69        2S          0.00224   0.00200   0.00732   0.03380  -0.00073
  70        3S          0.00149  -0.00210  -0.00086  -0.00516   0.00294
  71 11  H  1S         -0.00037   0.00299   0.00970   0.05189   0.00018
  72        2S          0.00217   0.00381   0.00443   0.04004   0.00012
  73        3S          0.00123   0.00052  -0.00283   0.00088   0.00169
  74 12  N  1S          0.00000  -0.00683  -0.08968   0.04191  -0.02623
  75        2S          0.00000  -0.01070  -0.14154   0.06680  -0.04172
  76        2PX        -0.00002   0.00411   0.02924  -0.00528  -0.03312
  77        2PY         0.00003  -0.00072   0.00069  -0.05511  -0.05804
  78        2PZ         0.00000   0.00130   0.01582  -0.00892  -0.00815
  79        3S          0.00008   0.02865   0.38516  -0.18760   0.11647
  80        3PX         0.00001   0.00588   0.04933  -0.01208  -0.04767
  81        3PY        -0.00007   0.00032   0.00710  -0.08647  -0.08996
  82        3PZ        -0.00001   0.00224   0.02902  -0.01630  -0.01083
  83        4S         -0.00131   0.01768   0.28962  -0.15041   0.10739
  84        4PX         0.00019   0.00228   0.03414  -0.00103  -0.01229
  85        4PY         0.00220  -0.00765  -0.01044  -0.05239  -0.03262
  86        4PZ         0.00014   0.00228   0.01504  -0.01000  -0.00278
  87 13  O  1S          0.00000  -0.10931   0.01939   0.01978  -0.02300
  88        2S          0.00002  -0.17515   0.03110   0.03190  -0.03706
  89        2PX        -0.00004   0.00205  -0.00960  -0.03409   0.05350
  90        2PY         0.00001   0.00018   0.00039  -0.00653  -0.00399
  91        2PZ         0.00001   0.05263  -0.00815  -0.00228  -0.00178
  92        3S         -0.00009   0.50261  -0.08918  -0.09372   0.10768
  93        3PX         0.00019   0.00840  -0.01673  -0.05454   0.08395
  94        3PY         0.00002   0.00050   0.00049  -0.01012  -0.00587
  95        3PZ        -0.00005   0.09650  -0.01584  -0.00750   0.00172
  96        4S         -0.00065   0.42136  -0.08774  -0.09168   0.12713
  97        4PX        -0.00004  -0.00994   0.00166  -0.02132   0.03361
  98        4PY         0.00005  -0.00038   0.00017  -0.00521  -0.00426
  99        4PZ        -0.00007   0.06241  -0.00970  -0.00367   0.00454
 100 14  H  1S          0.00001   0.09713  -0.02298  -0.03818   0.05240
 101        2S          0.00014   0.03657  -0.01323  -0.03049   0.04283
 102        3S          0.00015   0.00872  -0.00301  -0.00513   0.01180
 103 15  H  1S          0.00003   0.00394   0.07117  -0.07214  -0.00389
 104        2S         -0.00056   0.00695   0.05252  -0.04857   0.00018
 105        3S          0.00001  -0.00033   0.00057   0.00032   0.00427
                          11        12        13        14        15
                           O         O         O         O         O
     Eigenvalues --    -0.60952  -0.57453  -0.53577  -0.51533  -0.45326
   1 1   C  1S          0.04259  -0.02235   0.00108  -0.02625  -0.00064
   2        2S          0.06706  -0.03537   0.00171  -0.04235  -0.00094
   3        2PX         0.03847   0.02118  -0.01563  -0.08044  -0.01743
   4        2PY        -0.03968  -0.06317   0.01435  -0.08300  -0.00733
   5        2PZ         0.01320   0.00446   0.03522  -0.00802   0.14954
   6        3S         -0.18293   0.09768  -0.00375   0.11098   0.00271
   7        3PX         0.05559   0.03288  -0.02462  -0.12908  -0.02785
   8        3PY        -0.04925  -0.09663   0.01991  -0.11054  -0.01120
   9        3PZ         0.01964   0.00676   0.05718  -0.01195   0.23616
  10        4S         -0.17140   0.07550  -0.02516   0.24849   0.00977
  11        4PX         0.00220   0.00767  -0.01396  -0.03731  -0.01493
  12        4PY        -0.00463  -0.03615   0.00932  -0.02520  -0.00809
  13        4PZ        -0.01302   0.00386   0.02192  -0.01652   0.13040
  14 2   C  1S          0.02009  -0.06171   0.00573   0.00186   0.00099
  15        2S          0.03202  -0.09804   0.00907   0.00274   0.00185
  16        2PX        -0.06391   0.01671  -0.00761   0.02221  -0.01209
  17        2PY         0.02843   0.04816  -0.01044   0.08011  -0.01495
  18        2PZ        -0.01158   0.00510   0.06272   0.02181   0.03328
  19        3S         -0.08988   0.26140  -0.02464  -0.00870  -0.00524
  20        3PX        -0.09274   0.01867  -0.00847   0.03509  -0.02085
  21        3PY         0.04596   0.07144  -0.01882   0.12586  -0.01867
  22        3PZ        -0.01600   0.00570   0.10059   0.03421   0.05396
  23        4S         -0.05844   0.34032  -0.02464   0.01333  -0.04102
  24        4PX        -0.04150  -0.00461  -0.01955  -0.01235  -0.00294
  25        4PY         0.02307   0.01660  -0.01140   0.07016  -0.00919
  26        4PZ        -0.00153   0.01014   0.05596   0.00110   0.05477
  27 3   C  1S          0.02678   0.04637  -0.01748  -0.01176   0.00944
  28        2S          0.04241   0.07390  -0.02727  -0.01947   0.01503
  29        2PX        -0.00456  -0.04464  -0.01641   0.08963  -0.01502
  30        2PY        -0.07323   0.04907  -0.00078   0.01333   0.00875
  31        2PZ         0.00136  -0.00293   0.13128   0.02624  -0.05115
  32        3S         -0.11571  -0.20111   0.07032   0.05418  -0.04280
  33        3PX        -0.01093  -0.07291  -0.03131   0.13789  -0.02073
  34        3PY        -0.10862   0.07560  -0.00132   0.02161   0.01427
  35        3PZ         0.00422   0.00002   0.21324   0.03817  -0.07835
  36        4S         -0.12799  -0.26280   0.09516   0.10172  -0.04199
  37        4PX         0.02086   0.00721   0.02370   0.07627  -0.04379
  38        4PY        -0.02250   0.03207  -0.00016   0.01705   0.00766
  39        4PZ        -0.00904  -0.01259   0.09399   0.04484  -0.09157
  40 4   C  1S         -0.06487  -0.01573   0.00429   0.00723  -0.00018
  41        2S         -0.10276  -0.02485   0.00673   0.01088  -0.00012
  42        2PX         0.02527  -0.05943  -0.00524  -0.00656  -0.04288
  43        2PY        -0.04099  -0.03193   0.00987  -0.05527   0.01221
  44        2PZ         0.00815  -0.01364   0.06371   0.00737   0.07700
  45        3S          0.27194   0.06304  -0.01816  -0.02474   0.00020
  46        3PX         0.03772  -0.08779  -0.00628  -0.00817  -0.06990
  47        3PY        -0.06300  -0.04644   0.01858  -0.08629   0.01560
  48        3PZ         0.01111  -0.02012   0.10044   0.01161   0.12023
  49        4S          0.31905   0.11274  -0.00843  -0.07118  -0.02155
  50        4PX         0.00276  -0.02611  -0.02280   0.00393  -0.03448
  51        4PY        -0.00566  -0.00030   0.00954  -0.06136   0.00902
  52        4PZ         0.01804  -0.00074   0.05929   0.01344   0.10320
  53 5   H  1S         -0.04059   0.02515   0.01892   0.08015   0.08877
  54        2S         -0.03379   0.02738   0.02238   0.08440   0.10801
  55        3S         -0.00437   0.00176   0.00825   0.03244   0.04818
  56 6   H  1S         -0.04242   0.02635  -0.02306   0.06570  -0.10060
  57        2S         -0.04368   0.03079  -0.02297   0.05745  -0.12222
  58        3S         -0.01172   0.00328  -0.00948   0.01709  -0.05525
  59 7   H  1S         -0.01504   0.07585  -0.04506   0.02479  -0.02941
  60        2S         -0.01907   0.06695  -0.04371   0.02355  -0.02495
  61        3S          0.00029   0.01607  -0.01733   0.00510  -0.00496
  62 8   H  1S         -0.00873   0.07718   0.02646   0.04471   0.01488
  63        2S         -0.01442   0.06593   0.02925   0.05084   0.01313
  64        3S         -0.00021   0.01162   0.01043   0.02412   0.00726
  65 9   H  1S         -0.02476  -0.05437   0.10258   0.05355  -0.05655
  66        2S         -0.02029  -0.04482   0.11244   0.04750  -0.05546
  67        3S         -0.00204  -0.00906   0.03439   0.01212  -0.01667
  68 10  H  1S          0.07504   0.01878  -0.04393   0.00997  -0.06392
  69        2S          0.06973   0.01532  -0.04459   0.01861  -0.06997
  70        3S          0.01673   0.00804  -0.01555   0.00161  -0.01835
  71 11  H  1S          0.07647   0.02109   0.02961   0.02102   0.04877
  72        2S          0.06302   0.01686   0.03061   0.02697   0.05302
  73        3S          0.01078   0.00458   0.00895   0.00753   0.01804
  74 12  N  1S         -0.01543   0.04085  -0.00271   0.00763   0.00479
  75        2S         -0.02473   0.06517  -0.00428   0.01185   0.00777
  76        2PX        -0.00455   0.04614  -0.01566  -0.08097  -0.00631
  77        2PY         0.10678   0.00712  -0.01199   0.08161   0.00307
  78        2PZ         0.01165   0.00370   0.02681  -0.00115   0.07309
  79        3S          0.06960  -0.17935   0.01069  -0.02568  -0.02435
  80        3PX        -0.00525   0.06678  -0.02402  -0.12434  -0.01007
  81        3PY         0.16819   0.00927  -0.01766   0.12374   0.00468
  82        3PZ         0.01867   0.00276   0.04101  -0.00347   0.11044
  83        4S          0.07864  -0.24276   0.01930  -0.10374  -0.00497
  84        4PX        -0.00460   0.01786  -0.01173  -0.09635  -0.00232
  85        4PY         0.10166  -0.00514  -0.01833   0.14284   0.01013
  86        4PZ         0.01508  -0.00625   0.02679   0.00495   0.08609
  87 13  O  1S         -0.00596  -0.01012   0.01657   0.00697  -0.01950
  88        2S         -0.00964  -0.01634   0.02678   0.01127  -0.03167
  89        2PX         0.04178   0.09908   0.14208  -0.07517  -0.06915
  90        2PY        -0.02240   0.02095   0.00317   0.00454   0.00991
  91        2PZ        -0.00750  -0.02293   0.04371   0.03350  -0.04944
  92        3S          0.02866   0.04758  -0.07904  -0.03328   0.09497
  93        3PX         0.06470   0.15167   0.21648  -0.11140  -0.10698
  94        3PY        -0.03316   0.03094   0.00478   0.00690   0.01406
  95        3PZ        -0.00978  -0.03258   0.06161   0.05037  -0.06773
  96        4S          0.03052   0.06317  -0.10801  -0.04527   0.12675
  97        4PX         0.03613   0.09066   0.14079  -0.08618  -0.06639
  98        4PY        -0.02558   0.02347   0.00330   0.00429   0.01440
  99        4PZ        -0.00926  -0.02357   0.04680   0.02969  -0.05448
 100 14  H  1S          0.03076   0.07033   0.10368  -0.04822  -0.05525
 101        2S          0.03071   0.07079   0.11914  -0.04530  -0.07642
 102        3S          0.00771   0.02549   0.02883  -0.02836  -0.01914
 103 15  H  1S          0.09336  -0.04463   0.00069   0.08403   0.00373
 104        2S          0.07958  -0.04029   0.00196   0.07114  -0.00139
 105        3S          0.01437  -0.02078   0.00124   0.01507   0.00215
                          16        17        18        19        20
                           O         O         O         O         O
     Eigenvalues --    -0.42121  -0.41353  -0.39144  -0.38244  -0.35814
   1 1   C  1S         -0.01233  -0.00924   0.00756  -0.01240  -0.00273
   2        2S         -0.01976  -0.01483   0.01219  -0.01977  -0.00445
   3        2PX         0.03913   0.04467   0.07575   0.05064   0.03085
   4        2PY        -0.07919  -0.10450   0.00939   0.00036  -0.00570
   5        2PZ        -0.02274   0.01259   0.00076   0.03573  -0.10532
   6        3S          0.05221   0.03608  -0.02970   0.05863   0.01382
   7        3PX         0.06264   0.07040   0.11460   0.08197   0.04960
   8        3PY        -0.11438  -0.14934   0.00815  -0.01070  -0.01034
   9        3PZ        -0.03347   0.01813   0.00163   0.05703  -0.16143
  10        4S          0.09490   0.08930  -0.11091  -0.00438   0.02999
  11        4PX         0.03504   0.03629   0.07360   0.04055   0.03815
  12        4PY        -0.06010  -0.06740   0.00363  -0.02095  -0.02071
  13        4PZ        -0.03572   0.00595  -0.01125   0.04579  -0.12697
  14 2   C  1S          0.00719   0.01262   0.00783  -0.00666   0.00135
  15        2S          0.01190   0.02043   0.01273  -0.01078   0.00227
  16        2PX        -0.05345  -0.00300   0.00423  -0.10637  -0.05821
  17        2PY        -0.03477  -0.06270  -0.06328   0.06094   0.00828
  18        2PZ         0.11269  -0.11087   0.05060  -0.02776   0.03709
  19        3S         -0.03368  -0.05060  -0.03094   0.02140  -0.00816
  20        3PX        -0.08532  -0.00335   0.01116  -0.15813  -0.09558
  21        3PY        -0.05089  -0.09613  -0.09552   0.08504   0.01887
  22        3PZ         0.17691  -0.17386   0.07999  -0.04094   0.05730
  23        4S         -0.06959  -0.12218  -0.07116   0.18611  -0.02358
  24        4PX        -0.06756  -0.00122   0.00829  -0.11068  -0.04684
  25        4PY        -0.02327  -0.04201  -0.08449   0.04171   0.00607
  26        4PZ         0.13193  -0.12196   0.04548  -0.03090   0.04951
  27 3   C  1S         -0.00941  -0.01605   0.00828   0.01200   0.01071
  28        2S         -0.01512  -0.02581   0.01302   0.01887   0.01735
  29        2PX        -0.03770  -0.01336   0.06687   0.12320   0.01610
  30        2PY        -0.01438   0.02319   0.13628  -0.06461  -0.01506
  31        2PZ        -0.01251   0.00740   0.00483   0.00204   0.03567
  32        3S          0.04195   0.07283  -0.03222  -0.04436  -0.05754
  33        3PX        -0.06197  -0.02730   0.10307   0.18712   0.03353
  34        3PY        -0.02225   0.03990   0.21092  -0.10249  -0.02415
  35        3PZ        -0.01993   0.00956   0.00888   0.00663   0.05661
  36        4S          0.07804   0.11550  -0.10936  -0.17378  -0.01904
  37        4PX        -0.04075  -0.00270   0.08744   0.17472  -0.01813
  38        4PY        -0.00525   0.03335   0.17779  -0.08802  -0.02542
  39        4PZ        -0.04048   0.01733   0.03794   0.06995  -0.00315
  40 4   C  1S          0.00722   0.00427  -0.00566   0.00634   0.00589
  41        2S          0.01164   0.00688  -0.00899   0.01043   0.00975
  42        2PX        -0.02801  -0.08606  -0.08174  -0.04189  -0.03998
  43        2PY         0.08214   0.05809  -0.10915   0.00550  -0.01107
  44        2PZ        -0.08623   0.02812  -0.04274  -0.01190   0.11996
  45        3S         -0.02715  -0.01657   0.01524  -0.02999  -0.02854
  46        3PX        -0.04681  -0.13308  -0.11953  -0.05579  -0.06500
  47        3PY         0.12627   0.09347  -0.16258   0.01065  -0.02686
  48        3PZ        -0.13586   0.04433  -0.06493  -0.01634   0.18539
  49        4S         -0.08330  -0.04055   0.15065   0.01966  -0.07934
  50        4PX        -0.02203  -0.09247  -0.07507  -0.04620  -0.03606
  51        4PY         0.07302   0.05718  -0.08430   0.04341  -0.00307
  52        4PZ        -0.07554   0.03366  -0.04125  -0.03322   0.15983
  53 5   H  1S         -0.00133   0.01848  -0.05869   0.00436  -0.07989
  54        2S         -0.00196   0.02326  -0.06879   0.00831  -0.11000
  55        3S         -0.00315   0.00345  -0.02985  -0.00633  -0.06170
  56 6   H  1S          0.04350   0.01794  -0.03063  -0.02696   0.08757
  57        2S          0.05059   0.01761  -0.03711  -0.02806   0.11646
  58        3S          0.01331   0.00544  -0.01595  -0.02315   0.06012
  59 7   H  1S         -0.11218   0.02477  -0.07401   0.02123  -0.03858
  60        2S         -0.13467   0.03222  -0.09041   0.01509  -0.05715
  61        3S         -0.06032   0.01287  -0.04017  -0.01225  -0.00302
  62 8   H  1S          0.05858  -0.12547  -0.00718   0.02743   0.03751
  63        2S          0.07235  -0.15992  -0.00105   0.02076   0.05510
  64        3S          0.03359  -0.07462   0.00507   0.01660   0.02977
  65 9   H  1S         -0.01187   0.02175   0.01717   0.02458   0.02287
  66        2S         -0.01043   0.01936   0.02006   0.02303   0.04746
  67        3S         -0.00698   0.00434   0.00855   0.01271   0.02615
  68 10  H  1S         -0.00220  -0.08339   0.06096  -0.01902  -0.09797
  69        2S          0.00370  -0.10472   0.07417  -0.02706  -0.12879
  70        3S          0.00733  -0.05376   0.02396  -0.01836  -0.04074
  71 11  H  1S         -0.11047  -0.00991   0.03464  -0.01934   0.09849
  72        2S         -0.14306  -0.01249   0.03620  -0.02256   0.14030
  73        3S         -0.06321  -0.00384   0.02154  -0.00102   0.07528
  74 12  N  1S          0.01545   0.00657  -0.01528   0.00769   0.00047
  75        2S          0.02493   0.01054  -0.02471   0.01219   0.00060
  76        2PX         0.00751   0.03539   0.00858   0.12011   0.05587
  77        2PY         0.07498   0.11010  -0.01199  -0.03286  -0.00382
  78        2PZ         0.05496  -0.03077   0.02275   0.02416  -0.02975
  79        3S         -0.07240  -0.03053   0.06909  -0.03250   0.00069
  80        3PX         0.00944   0.05383   0.01965   0.18259   0.08718
  81        3PY         0.12003   0.17543  -0.01928  -0.04745  -0.00834
  82        3PZ         0.08086  -0.04565   0.03573   0.03786  -0.04392
  83        4S         -0.09641  -0.03942   0.12739  -0.06669  -0.00030
  84        4PX         0.01217   0.04827   0.00632   0.13722   0.06664
  85        4PY         0.08694   0.14313  -0.02719  -0.08409   0.00138
  86        4PZ         0.07221  -0.03868   0.03533   0.01957  -0.04235
  87 13  O  1S         -0.00641   0.00772   0.00341   0.01346  -0.02591
  88        2S         -0.01050   0.01244   0.00556   0.02187  -0.04213
  89        2PX        -0.00369   0.01893  -0.04416  -0.05541  -0.05786
  90        2PY        -0.03431   0.04823   0.11074  -0.07470  -0.00316
  91        2PZ        -0.02191   0.03083   0.05525   0.13347  -0.09861
  92        3S          0.03309  -0.03573  -0.01785  -0.06719   0.12655
  93        3PX        -0.00794   0.02804  -0.06523  -0.08094  -0.08947
  94        3PY        -0.04886   0.06885   0.16079  -0.10795  -0.00540
  95        3PZ        -0.03033   0.04317   0.08063   0.19243  -0.13423
  96        4S          0.03100  -0.06173  -0.00333  -0.06115   0.18861
  97        4PX         0.00595   0.02297  -0.06513  -0.09123  -0.05996
  98        4PY        -0.05066   0.06887   0.14471  -0.10155  -0.00053
  99        4PZ        -0.02715   0.03892   0.07885   0.18872  -0.13875
 100 14  H  1S         -0.00662   0.02202  -0.01349  -0.00255  -0.06748
 101        2S         -0.01273   0.02961  -0.01715  -0.00128  -0.09369
 102        3S         -0.00251   0.00495  -0.01825  -0.02645  -0.03362
 103 15  H  1S          0.04816   0.05937   0.00124  -0.06955  -0.02356
 104        2S          0.05842   0.06070   0.00555  -0.07602  -0.02970
 105        3S          0.01970   0.02680  -0.00065  -0.06441  -0.03028
                          21        22        23        24        25
                           O         O         O         O         V
     Eigenvalues --    -0.34772  -0.31641  -0.27006  -0.18306   0.02494
   1 1   C  1S         -0.00915   0.00591  -0.00120  -0.00299   0.00955
   2        2S         -0.01506   0.00969  -0.00208  -0.00484   0.01529
   3        2PX         0.13022  -0.03406  -0.03465   0.01365   0.03030
   4        2PY         0.04465   0.00033   0.01069   0.01002   0.02666
   5        2PZ         0.01298  -0.05642  -0.00590  -0.05234  -0.01017
   6        3S          0.05308  -0.02988   0.01097   0.01643  -0.03254
   7        3PX         0.19989  -0.05638  -0.05623   0.01932   0.03922
   8        3PY         0.07487  -0.00069   0.01384   0.01056   0.03149
   9        3PZ         0.01958  -0.08712  -0.00821  -0.07100  -0.01435
  10        4S          0.01104  -0.09005  -0.07836  -0.00884  -0.35614
  11        4PX         0.12438  -0.04898  -0.07394   0.02637   0.19691
  12        4PY         0.06171   0.00687   0.00303  -0.00749   0.08555
  13        4PZ         0.01216  -0.07274  -0.05112  -0.08471  -0.07718
  14 2   C  1S          0.01829  -0.00828   0.01062  -0.00226   0.02041
  15        2S          0.02979  -0.01355   0.01707  -0.00344   0.03266
  16        2PX         0.07337   0.02040  -0.07981   0.01514  -0.00181
  17        2PY         0.11726  -0.02614   0.05172  -0.00120  -0.03647
  18        2PZ         0.01973   0.04717  -0.00386  -0.05256  -0.02785
  19        3S         -0.09266   0.03974  -0.04305   0.00744  -0.07081
  20        3PX         0.11222   0.03484  -0.12823   0.03179   0.00600
  21        3PY         0.18636  -0.05047   0.09043  -0.00116  -0.04869
  22        3PZ         0.02909   0.07267  -0.00932  -0.07567  -0.04219
  23        4S         -0.08137   0.11879  -0.20401   0.03257  -0.61625
  24        4PX         0.05528   0.00687  -0.10381   0.03595   0.05043
  25        4PY         0.12589  -0.02816   0.10578  -0.00829  -0.18328
  26        4PZ         0.00405   0.04058  -0.01283  -0.01307  -0.13994
  27 3   C  1S          0.00416  -0.00649   0.00089   0.00107   0.01480
  28        2S          0.00661  -0.01110   0.00154   0.00178   0.02337
  29        2PX         0.01702  -0.03695   0.00618   0.00660  -0.00603
  30        2PY        -0.03146  -0.00426  -0.08879  -0.00149   0.00678
  31        2PZ        -0.00200  -0.12627   0.00567   0.00702  -0.08841
  32        3S         -0.01809   0.05161  -0.00537  -0.00338  -0.04147
  33        3PX         0.02339  -0.07168   0.01107   0.00933  -0.00048
  34        3PY        -0.04023  -0.00578  -0.14098   0.00102   0.01618
  35        3PZ        -0.00358  -0.19143   0.00931   0.01088  -0.13643
  36        4S         -0.04258  -0.08135  -0.00155  -0.03543  -0.65460
  37        4PX         0.02327  -0.00427   0.00605   0.01920  -0.11591
  38        4PY         0.00051  -0.00068   0.03027  -0.05092   0.00986
  39        4PZ         0.01312  -0.07887  -0.00563  -0.00552  -0.37957
  40 4   C  1S         -0.01768  -0.00701  -0.01052   0.00333   0.02010
  41        2S         -0.02872  -0.01144  -0.01668   0.00541   0.03241
  42        2PX        -0.08200   0.03219   0.07606  -0.00010  -0.00112
  43        2PY         0.08923   0.01721   0.05158  -0.00686   0.03025
  44        2PZ        -0.00187   0.07814  -0.00948   0.01427  -0.02593
  45        3S          0.08439   0.02991   0.03568  -0.01459  -0.07825
  46        3PX        -0.12794   0.05383   0.12665   0.00087   0.00450
  47        3PY         0.14731   0.03987   0.08792  -0.01264   0.04074
  48        3PZ        -0.00262   0.11940  -0.01189   0.01750  -0.04179
  49        4S          0.13905   0.14186   0.23909  -0.05437  -0.55228
  50        4PX        -0.08027   0.01267   0.07930  -0.01569   0.02474
  51        4PY         0.10417   0.01986   0.10695  -0.00498   0.18548
  52        4PZ        -0.00367   0.08723   0.01534   0.06237  -0.11293
  53 5   H  1S         -0.08106  -0.02122   0.02130  -0.07033   0.01471
  54        2S         -0.11670  -0.02568   0.05001  -0.13224   0.07192
  55        3S         -0.06404  -0.01301   0.02403  -0.09367   0.39715
  56 6   H  1S         -0.04782   0.05372   0.01667   0.07247   0.00391
  57        2S         -0.06709   0.08355   0.02101   0.14726   0.01183
  58        3S         -0.03608   0.05181   0.01006   0.08443   0.13077
  59 7   H  1S          0.05240  -0.04017   0.00285   0.07410  -0.01033
  60        2S          0.07412  -0.06289   0.01091   0.16874  -0.01765
  61        3S          0.04720  -0.07988   0.05087   0.09517   0.11155
  62 8   H  1S          0.05467   0.03349   0.02307  -0.06949   0.02018
  63        2S          0.08680   0.04752   0.04660  -0.16127   0.08320
  64        3S          0.04989   0.02032   0.03281  -0.10124   0.54691
  65 9   H  1S         -0.00231  -0.13219   0.00532   0.00700   0.02099
  66        2S         -0.00599  -0.22110   0.01083   0.01917   0.12015
  67        3S         -0.00202  -0.11789   0.00824   0.00250   0.72402
  68 10  H  1S         -0.05903  -0.05612   0.01127  -0.00971  -0.01116
  69        2S         -0.09131  -0.08765   0.01228  -0.00234  -0.01808
  70        3S         -0.06183  -0.09306  -0.02930   0.02372   0.11570
  71 11  H  1S         -0.02613   0.06569  -0.03077   0.01359   0.03141
  72        2S         -0.04253   0.08726  -0.07341   0.01372   0.10235
  73        3S         -0.03044   0.05036  -0.03783   0.00474   0.56200
  74 12  N  1S         -0.00335   0.00329   0.00622   0.00766   0.01292
  75        2S         -0.00508   0.00554   0.01037   0.01249   0.02115
  76        2PX        -0.12122  -0.02785   0.04619  -0.04394   0.01730
  77        2PY        -0.02238   0.00774  -0.00761  -0.02059  -0.00828
  78        2PZ        -0.02955  -0.00374   0.03167   0.25571   0.01300
  79        3S          0.01326  -0.01859  -0.03643  -0.04060  -0.06251
  80        3PX        -0.18513  -0.04725   0.06762  -0.06418   0.02238
  81        3PY        -0.03573   0.01669  -0.00884  -0.02879  -0.01273
  82        3PZ        -0.04588  -0.00714   0.04191   0.36262   0.01277
  83        4S         -0.00802  -0.03559   0.01166  -0.01474  -0.19925
  84        4PX        -0.14968  -0.03338   0.09394  -0.07576   0.06301
  85        4PY        -0.03574  -0.02758  -0.02679  -0.04654  -0.04238
  86        4PZ        -0.03845  -0.00320   0.07815   0.52012   0.05987
  87 13  O  1S          0.00006   0.02084  -0.00029   0.00180   0.02264
  88        2S          0.00010   0.03373  -0.00047   0.00308   0.03694
  89        2PX        -0.01137   0.00697  -0.00617   0.00279  -0.03863
  90        2PY         0.02755   0.01570   0.26149  -0.02034  -0.00332
  91        2PZ         0.01395   0.17632  -0.00565  -0.00244  -0.01999
  92        3S         -0.00088  -0.09992   0.00138  -0.01195  -0.10550
  93        3PX        -0.01720   0.01049  -0.00819   0.00605  -0.05605
  94        3PY         0.03813   0.02187   0.36605  -0.03228  -0.00420
  95        3PZ         0.02053   0.24830  -0.00806  -0.00486  -0.04367
  96        4S          0.00908  -0.13407  -0.00157  -0.01070  -0.38814
  97        4PX        -0.01774  -0.01170  -0.00928  -0.00090  -0.11938
  98        4PY         0.04484   0.02494   0.42503  -0.02027  -0.00948
  99        4PZ         0.02187   0.27292  -0.00943  -0.00060  -0.03061
 100 14  H  1S         -0.00300   0.06405  -0.00185   0.00071   0.04539
 101        2S         -0.00614   0.08530  -0.00273  -0.00351   0.10653
 102        3S         -0.00452   0.01441   0.00005   0.01403   0.54358
 103 15  H  1S          0.04800   0.01213  -0.02343   0.01582   0.02108
 104        2S          0.08848   0.03235  -0.03208   0.01511   0.05709
 105        3S          0.06092   0.02778  -0.04093   0.01305   0.29170
                          26        27        28        29        30
                           V         V         V         V         V
     Eigenvalues --     0.04704   0.07168   0.07742   0.09509   0.10438
   1 1   C  1S         -0.02277   0.03090   0.01891   0.02935   0.02466
   2        2S         -0.03626   0.04993   0.03027   0.04829   0.03901
   3        2PX        -0.02831   0.02785   0.04182  -0.02295   0.06519
   4        2PY        -0.05123  -0.02280   0.00236  -0.06741   0.02826
   5        2PZ        -0.02479   0.05939  -0.06680   0.00266  -0.04290
   6        3S          0.07029  -0.12467  -0.06617  -0.13000  -0.06836
   7        3PX        -0.02622   0.02979   0.05392  -0.05452   0.08755
   8        3PY        -0.06773  -0.04068  -0.00008  -0.12460   0.02339
   9        3PZ        -0.02913   0.08246  -0.09703  -0.00391  -0.05713
  10        4S          0.94566  -0.76048  -0.62296  -0.63750  -1.07121
  11        4PX        -0.14359   0.13215   0.20169  -0.20690   0.31096
  12        4PY        -0.19493   0.03558   0.06045  -0.10121   0.12990
  13        4PZ        -0.18001   0.33129  -0.39101   0.04365  -0.29681
  14 2   C  1S         -0.01685  -0.01104  -0.01749   0.01774  -0.00017
  15        2S         -0.02702  -0.01673  -0.02743   0.02842  -0.00062
  16        2PX         0.01954  -0.00001   0.01841  -0.01842  -0.00788
  17        2PY         0.03095   0.04603   0.04414  -0.07668   0.00607
  18        2PZ        -0.00577   0.04423  -0.02696  -0.01190   0.05387
  19        3S          0.05615   0.00987   0.04608  -0.06163   0.00811
  20        3PX         0.03366   0.00414   0.02364  -0.02561  -0.01334
  21        3PY         0.03051   0.07132   0.06605  -0.10166   0.01419
  22        3PZ        -0.00775   0.06374  -0.03810  -0.01974   0.07179
  23        4S          0.55494   0.67959   0.74711  -0.62903  -0.02055
  24        4PX         0.15069   0.04990   0.06756   0.05247   0.05621
  25        4PY         0.19207   0.02095   0.12641  -0.69638   0.01410
  26        4PZ        -0.04811   0.26489  -0.19181   0.01882   0.32406
  27 3   C  1S         -0.00148   0.00572   0.00679   0.01342  -0.01995
  28        2S         -0.00318   0.00887   0.01148   0.02181  -0.03272
  29        2PX         0.03090   0.00013  -0.00562  -0.02966   0.06376
  30        2PY        -0.01079  -0.02790  -0.01597  -0.03381   0.00277
  31        2PZ        -0.06173  -0.00001  -0.01027  -0.01962   0.03654
  32        3S          0.02870  -0.00572  -0.03699  -0.04816   0.08681
  33        3PX         0.06842   0.00840  -0.00995  -0.04452   0.11734
  34        3PY        -0.02396  -0.06634  -0.03423  -0.07439   0.00846
  35        3PZ        -0.10037   0.00929  -0.01813  -0.01982   0.04165
  36        4S         -0.19332  -0.42744  -0.11938  -0.58873   0.57284
  37        4PX         0.03790   0.04471   0.07836  -0.06774   0.26769
  38        4PY        -0.03237  -0.12624  -0.09680  -0.23993  -0.02468
  39        4PZ        -0.32607   0.03177  -0.01839  -0.06476   0.19359
  40 4   C  1S         -0.01458   0.00939   0.00297  -0.02684  -0.01957
  41        2S         -0.02391   0.01459   0.00453  -0.04272  -0.03130
  42        2PX         0.02008  -0.03887   0.00526  -0.01585   0.00605
  43        2PY        -0.02344   0.05587   0.03251  -0.05408  -0.04679
  44        2PZ        -0.01687   0.03379  -0.08736  -0.01493  -0.01904
  45        3S          0.06338  -0.02486  -0.00403   0.08453   0.05939
  46        3PX         0.03125  -0.04842   0.00806  -0.02451   0.00195
  47        3PY        -0.02476   0.08430   0.04914  -0.07413  -0.05908
  48        3PZ        -0.02785   0.05174  -0.12733  -0.01791  -0.03033
  49        4S          0.37594  -0.40901  -0.18577   1.00804   0.79931
  50        4PX         0.20721  -0.20855  -0.05144  -0.19219   0.01651
  51        4PY        -0.19154   0.27668   0.16705  -0.33600  -0.26576
  52        4PZ        -0.05375   0.18575  -0.48999  -0.14264  -0.14916
  53 5   H  1S         -0.00756  -0.00762   0.01967  -0.00961   0.02206
  54        2S         -0.02789  -0.03872   0.05302  -0.08113   0.05582
  55        3S         -0.39041   0.10246   0.95697   0.11817   1.22440
  56 6   H  1S         -0.01570   0.01871  -0.01257  -0.00037  -0.00120
  57        2S         -0.08823   0.03493  -0.03686  -0.02471  -0.03154
  58        3S         -0.66016   0.92393  -0.26550   0.30387   0.20777
  59 7   H  1S         -0.02662   0.00674  -0.00101   0.03306  -0.00299
  60        2S         -0.10149   0.00940   0.00966   0.13285  -0.02567
  61        3S         -0.49566   0.10354  -0.65625   0.77340   0.40445
  62 8   H  1S          0.00681   0.00264  -0.00042   0.02443  -0.00790
  63        2S          0.00816  -0.00885   0.00206   0.06525  -0.00615
  64        3S         -0.16591  -0.50539  -0.11971   0.88257  -0.49619
  65 9   H  1S          0.00579  -0.01506   0.02575   0.01292  -0.01605
  66        2S          0.07595  -0.02729   0.03379   0.01623   0.00584
  67        3S          0.32510   0.01818   0.28918   0.51814  -0.89026
  68 10  H  1S         -0.03929   0.01286  -0.01895  -0.01728  -0.03112
  69        2S         -0.12804   0.04116  -0.03698  -0.04002  -0.10697
  70        3S         -0.56033   0.71328  -0.49353  -0.77755  -0.78980
  71 11  H  1S          0.00704  -0.01602   0.02202  -0.02089   0.00417
  72        2S          0.00895  -0.04611   0.07496  -0.04828   0.02571
  73        3S         -0.10951   0.01490   0.86948  -0.61815  -0.33195
  74 12  N  1S         -0.01954  -0.02931  -0.01103  -0.02809   0.00029
  75        2S         -0.03171  -0.04742  -0.01785  -0.04541   0.00054
  76        2PX        -0.01834  -0.05158  -0.03958  -0.04459   0.02814
  77        2PY         0.02563   0.03516   0.01137   0.00642  -0.02598
  78        2PZ         0.01444  -0.01600   0.02010   0.00394   0.00935
  79        3S          0.08611   0.12139   0.04632   0.11081  -0.00760
  80        3PX        -0.01635  -0.06191  -0.04921  -0.05411   0.04004
  81        3PY         0.03620   0.04818   0.01758   0.00119  -0.03538
  82        3PZ         0.02095  -0.00897   0.02071   0.01314   0.01491
  83        4S          0.40516   0.61343   0.22535   0.62067   0.04372
  84        4PX        -0.05777  -0.24188  -0.19662  -0.19198   0.11906
  85        4PY         0.15170   0.22465   0.04665   0.14665  -0.15301
  86        4PZ         0.07118  -0.09289   0.10877   0.00258   0.03514
  87 13  O  1S          0.02262   0.00849  -0.01592  -0.00856   0.01644
  88        2S          0.03658   0.01404  -0.02602  -0.01377   0.02661
  89        2PX        -0.01911  -0.04305   0.05404  -0.00024  -0.01511
  90        2PY         0.00047   0.01403   0.00870  -0.01953  -0.01744
  91        2PZ        -0.06844   0.00226   0.01212   0.02668  -0.05449
  92        3S         -0.09559  -0.04509   0.07583   0.03449  -0.06921
  93        3PX        -0.02954  -0.05984   0.07884   0.00059  -0.01967
  94        3PY        -0.00016   0.01722   0.00967  -0.02857  -0.02402
  95        3PZ        -0.11255  -0.00003   0.02579   0.03964  -0.07907
  96        4S         -0.47989  -0.12055   0.28996   0.20922  -0.38163
  97        4PX        -0.03310  -0.14387   0.14135  -0.02754  -0.03862
  98        4PY         0.00448   0.04075   0.03264  -0.03301  -0.03754
  99        4PZ        -0.14965   0.01280   0.01306   0.08058  -0.16892
 100 14  H  1S          0.03528   0.01584  -0.02413  -0.00456   0.01544
 101        2S          0.05636   0.01926  -0.00271   0.01925   0.01369
 102        3S          0.61672   0.37841  -0.65831  -0.24869   0.56972
 103 15  H  1S         -0.01307  -0.05507  -0.02120  -0.06706  -0.00828
 104        2S         -0.02725  -0.19456  -0.07136  -0.25984  -0.02454
 105        3S         -0.51674  -0.84428  -0.39624  -0.60263   0.36058
                          31        32        33        34        35
                           V         V         V         V         V
     Eigenvalues --     0.11024   0.13170   0.14866   0.15577   0.18288
   1 1   C  1S         -0.01543  -0.00093   0.01535   0.00228   0.00513
   2        2S         -0.02418  -0.00125   0.02434   0.00330   0.00836
   3        2PX        -0.01160   0.03504  -0.05221  -0.01547  -0.07591
   4        2PY        -0.04732  -0.05064  -0.02909  -0.02970   0.09059
   5        2PZ        -0.05946  -0.02478  -0.04480   0.11847   0.00299
   6        3S          0.03655  -0.00084  -0.03516   0.00405  -0.01012
   7        3PX        -0.01207   0.05614  -0.08664  -0.00679  -0.14776
   8        3PY        -0.06582  -0.08639  -0.06140  -0.06156   0.17124
   9        3PZ        -0.08082  -0.02800  -0.06063   0.15716  -0.01340
  10        4S          0.75444   0.04054  -0.84876  -0.28465  -0.46098
  11        4PX         0.01166   0.34721  -0.53352  -0.12001  -0.65712
  12        4PY        -0.26513  -0.46845  -0.22127  -0.36739   0.62737
  13        4PZ        -0.30787  -0.23711  -0.37665   0.90375   0.11910
  14 2   C  1S          0.01389   0.02151  -0.01930  -0.00306   0.02810
  15        2S          0.02246   0.03489  -0.03112  -0.00533   0.04477
  16        2PX        -0.03336   0.05235  -0.07438   0.00495  -0.08045
  17        2PY        -0.03625  -0.02378   0.00270  -0.01220   0.05258
  18        2PZ         0.10862  -0.07621  -0.05012   0.00772  -0.04532
  19        3S         -0.05404  -0.07528   0.05931   0.01947  -0.07316
  20        3PX        -0.03680   0.09357  -0.15175   0.00895  -0.12417
  21        3PY        -0.05139  -0.02308   0.00649  -0.02159   0.08576
  22        3PZ         0.14873  -0.10043  -0.07675   0.00984  -0.06389
  23        4S         -0.41731  -0.74930   0.78663   0.13160  -1.49047
  24        4PX        -0.24095   0.38220  -0.50738  -0.01016  -0.87977
  25        4PY        -0.24238  -0.13198  -0.10242  -0.04739   0.86691
  26        4PZ         0.72485  -0.58072  -0.45659  -0.03573  -0.42935
  27 3   C  1S         -0.00585  -0.03100  -0.02168  -0.02738  -0.02816
  28        2S         -0.00962  -0.05086  -0.03526  -0.04495  -0.04539
  29        2PX        -0.02562   0.05443  -0.06117   0.04044  -0.02453
  30        2PY        -0.01926  -0.03111  -0.06228  -0.04305   0.09762
  31        2PZ         0.02450   0.03172   0.01206  -0.02788   0.01948
  32        3S          0.02251   0.12721   0.07009   0.10396   0.08315
  33        3PX        -0.05179   0.08854  -0.10217   0.06798  -0.03734
  34        3PY        -0.03786  -0.07022  -0.10814  -0.07191   0.16222
  35        3PZ         0.04170   0.02223  -0.00248  -0.07753   0.00299
  36        4S          0.18480   1.03503   1.02675   1.11812   1.54069
  37        4PX        -0.11091   0.29012  -0.55817   0.14857  -0.40437
  38        4PY        -0.17892  -0.12822  -0.59210  -0.44219   1.10840
  39        4PZ         0.09625   0.25258   0.16780  -0.06179   0.23523
  40 4   C  1S          0.02399   0.02088   0.00982   0.01435  -0.01444
  41        2S          0.03827   0.03285   0.01525   0.02210  -0.02184
  42        2PX         0.00472   0.00828  -0.10200   0.01406  -0.03964
  43        2PY         0.02162   0.01464  -0.03327  -0.02348   0.03053
  44        2PZ        -0.04704   0.03942  -0.00546  -0.09604  -0.05181
  45        3S         -0.07000  -0.05040  -0.01824  -0.01764   0.00520
  46        3PX         0.01254   0.03617  -0.16722   0.01839  -0.06221
  47        3PY         0.01703   0.01775  -0.05140  -0.03475   0.04762
  48        3PZ        -0.06379   0.05342  -0.01405  -0.12498  -0.06687
  49        4S         -1.00391  -0.94756  -0.43579  -0.81795   0.99856
  50        4PX         0.03879   0.01768  -1.01388   0.00948  -0.40573
  51        4PY         0.06132  -0.02242  -0.42682  -0.37021   0.43899
  52        4PZ        -0.24584   0.27654  -0.12266  -0.88366  -0.61496
  53 5   H  1S          0.00086  -0.00217  -0.03512  -0.01691   0.00682
  54        2S          0.01101   0.01830  -0.14131  -0.01947   0.03657
  55        3S         -0.05842   0.34070   0.10697  -1.26994  -0.36682
  56 6   H  1S         -0.02498  -0.00495  -0.03132  -0.00741   0.00703
  57        2S         -0.05919  -0.01256  -0.11103  -0.06235   0.07945
  58        3S         -0.97721  -0.41334  -0.52011   1.31924   0.22483
  59 7   H  1S          0.03465  -0.00749   0.01863  -0.01114  -0.00040
  60        2S          0.08825  -0.06325   0.11050  -0.09556  -0.06846
  61        3S          1.52095  -0.36606  -0.61750   0.06258   0.04430
  62 8   H  1S         -0.00535   0.02886   0.01864   0.02021  -0.00421
  63        2S         -0.04651   0.06011   0.11883   0.13619  -0.08922
  64        3S         -0.56004   1.51972   0.04403  -0.09318   0.65785
  65 9   H  1S         -0.02136  -0.02598   0.02188   0.01121   0.01428
  66        2S         -0.05213  -0.05377   0.07503   0.04069   0.05706
  67        3S         -0.30968  -1.20898  -0.25037  -0.43649  -0.76857
  68 10  H  1S         -0.00155  -0.01196   0.00554  -0.03156   0.02171
  69        2S         -0.00550  -0.08626   0.00218  -0.16342   0.07478
  70        3S          0.11564   0.73350   0.35534  -1.00985  -0.38159
  71 11  H  1S          0.01014  -0.00295  -0.01223   0.00729   0.04052
  72        2S         -0.00181  -0.03839  -0.06889   0.04141   0.21573
  73        3S          0.92263   0.07158  -0.08168   1.21535   0.64748
  74 12  N  1S         -0.00958  -0.02803   0.00766  -0.00559   0.00838
  75        2S         -0.01542  -0.04458   0.01211  -0.00883   0.01351
  76        2PX        -0.02040   0.00662  -0.07832  -0.00714  -0.00315
  77        2PY         0.00997   0.00002  -0.07408  -0.04408   0.04805
  78        2PZ        -0.01024   0.01816  -0.01376   0.00085   0.01059
  79        3S          0.03896   0.09299  -0.02003   0.01632  -0.02785
  80        3PX        -0.02823   0.02570  -0.12699  -0.01660  -0.00653
  81        3PY         0.01281   0.00515  -0.10585  -0.05700   0.07123
  82        3PZ        -0.00493   0.01318  -0.03512   0.01729   0.01860
  83        4S          0.21711   0.88359  -0.35154   0.17781  -0.22532
  84        4PX        -0.07125   0.05105  -0.39949   0.00869   0.02852
  85        4PY         0.06705  -0.10679  -0.46409  -0.36929   0.22025
  86        4PZ        -0.08172   0.18415  -0.00918  -0.10612   0.01372
  87 13  O  1S          0.00091   0.01291  -0.00020   0.01042   0.00403
  88        2S          0.00163   0.02094  -0.00039   0.01647   0.00642
  89        2PX        -0.01695   0.04975  -0.05734   0.06153  -0.01634
  90        2PY         0.00074   0.01141   0.03197   0.01311  -0.04579
  91        2PZ         0.02950  -0.03017   0.00512  -0.04330  -0.00613
  92        3S         -0.00995  -0.05650   0.00390  -0.03281  -0.01294
  93        3PX        -0.02600   0.06676  -0.07871   0.08041  -0.02214
  94        3PY        -0.00186   0.01439   0.03903   0.01183  -0.05465
  95        3PZ         0.04254  -0.03929   0.00407  -0.06072  -0.00631
  96        4S          0.02846  -0.25867  -0.01412  -0.29861  -0.11515
  97        4PX        -0.03694   0.19968  -0.22896   0.23779  -0.07762
  98        4PY         0.01925   0.03368   0.10770   0.06990  -0.17666
  99        4PZ         0.08072  -0.12592   0.01653  -0.17100  -0.05614
 100 14  H  1S          0.00139  -0.00334   0.02999   0.00451   0.02282
 101        2S         -0.04025  -0.07304   0.14475   0.04043   0.11776
[...]
 ! D5    D(6,1,4,10)            31.3338         -DE/DX =    0.0                 !
 ! D6    D(6,1,4,11)           -89.9394         -DE/DX =    0.0                 !
 ! D7    D(12,1,4,3)            27.6664         -DE/DX =    0.0                 !
 ! D8    D(12,1,4,10)          -88.0665         -DE/DX =    0.0                 !
 ! D9    D(12,1,4,11)          150.6603         -DE/DX =    0.0                 !
 ! D10   D(4,1,12,2)           -42.4002         -DE/DX =    0.0                 !
 ! D11   D(4,1,12,15)         -168.3156         -DE/DX =    0.0                 !
 ! D12   D(5,1,12,2)            75.7522         -DE/DX =    0.0                 !
 ! D13   D(5,1,12,15)          -50.1632         -DE/DX =    0.0                 !
 ! D14   D(6,1,12,2)          -163.0299         -DE/DX =    0.0                 !
 ! D15   D(6,1,12,15)           71.0547         -DE/DX =    0.0                 !
 ! D16   D(7,2,3,4)           -141.3442         -DE/DX =    0.0                 !
 ! D17   D(7,2,3,9)             96.8466         -DE/DX =    0.0                 !
 ! D18   D(7,2,3,13)           -25.0874         -DE/DX =    0.0                 !
 ! D19   D(8,2,3,4)             98.844          -DE/DX =    0.0                 !
 ! D20   D(8,2,3,9)            -22.9652         -DE/DX =    0.0                 !
 ! D21   D(8,2,3,13)          -144.8992         -DE/DX =    0.0                 !
 ! D22   D(12,2,3,4)           -21.0559         -DE/DX =    0.0                 !
 ! D23   D(12,2,3,9)          -142.865          -DE/DX =    0.0                 !
 ! D24   D(12,2,3,13)           95.2009         -DE/DX =    0.0                 !
 ! D25   D(3,2,12,1)            40.017          -DE/DX =    0.0                 !
 ! D26   D(3,2,12,15)          165.9911         -DE/DX =    0.0                 !
 ! D27   D(7,2,12,1)           160.2921         -DE/DX =    0.0                 !
 ! D28   D(7,2,12,15)          -73.7337         -DE/DX =    0.0                 !
 ! D29   D(8,2,12,1)           -77.6276         -DE/DX =    0.0                 !
 ! D30   D(8,2,12,15)           48.3465         -DE/DX =    0.0                 !
 ! D31   D(2,3,4,1)             -4.129          -DE/DX =    0.0                 !
 ! D32   D(2,3,4,10)           113.8884         -DE/DX =    0.0                 !
 ! D33   D(2,3,4,11)          -127.0013         -DE/DX =    0.0                 !
 ! D34   D(9,3,4,1)            116.5774         -DE/DX =    0.0                 !
 ! D35   D(9,3,4,10)          -125.4051         -DE/DX =    0.0                 !
 ! D36   D(9,3,4,11)            -6.2948         -DE/DX =    0.0                 !
 ! D37   D(13,3,4,1)          -124.0421         -DE/DX =    0.0                 !
 ! D38   D(13,3,4,10)           -6.0246         -DE/DX =    0.0                 !
 ! D39   D(13,3,4,11)          113.0857         -DE/DX =    0.0                 !
 ! D40   D(2,3,13,14)           72.9916         -DE/DX =    0.0                 !
 ! D41   D(4,3,13,14)         -172.0256         -DE/DX =    0.0                 !
 ! D42   D(9,3,13,14)          -50.1796         -DE/DX =    0.0                 !
 --------------------------------------------------------------------------------
 GradGradGradGradGradGradGradGradGradGradGradGradGradGradGradGradGradGrad

 1|1|UNPC-DESKTOP-KC5UJLK|Freq|RB3LYP|6-311G|C4H9N1O1|23122|02-Apr-2022
 |0||#N Geom=AllCheck Guess=TCheck SCRF=Check GenChk RB3LYP/6-311G Freq
 ||Energy Calculation(GC)||0,1|C,-0.3000750327,-0.2773604576,-0.0717129
 584|C,1.5566602021,1.1787550342,-0.0174552948|C,0.3173931975,2.1006494
 553,-0.0185307246|C,-0.8963611261,1.14178867,0.0161158434|H,-0.2462493
 451,-0.6025393785,-1.1222700708|H,-0.8805990912,-1.014315884,0.4815300
 5|H,2.3594706499,1.5853426315,0.5967319387|H,1.9278568972,1.0719872362
 ,-1.0487542831|H,0.3148121473,2.7470518766,-0.8977151681|H,-1.39934997
 18,1.2894858242,0.971507223|H,-1.6102906316,1.3418887362,-0.7812041907
 |N,1.0411258843,-0.0951444626,0.5307650432|O,0.2396212198,2.9422628335
 ,1.1841339966|H,0.9130254912,3.6437001829,1.1381105326|H,1.6647852193,
 -0.8832326079,0.3959429429||Version=IA32W-G09RevD.01|State=1-A|HF=-287
 .7900575|RMSD=4.099e-009|RMSF=1.633e-005|ZeroPoint=0.1332773|Thermal=0
 .1393111|Dipole=0.6441122,-0.0149854,-1.2574617|DipoleDeriv=0.5420319,
 0.1224811,0.1203142,0.0123067,0.2177895,0.0479009,0.0118612,0.0961705,
 0.5975417,0.1136432,0.2006767,-0.064737,0.2702563,0.3983902,-0.1383361
 ,-0.1367982,-0.0038299,0.5303506,0.3773079,0.0058587,0.0231121,-0.0828
 053,0.7169003,0.2242624,0.0615867,0.2393595,0.7229464,-0.0135186,-0.10
 47036,0.046723,-0.0030804,-0.0544639,-0.0206127,0.0568094,-0.033678,0.
 1803577,-0.0577883,0.005641,0.0135582,0.0052683,-0.0163109,-0.0854478,
 -0.092253,-0.168486,-0.339574,-0.0439816,-0.127819,0.0543023,-0.124943
 4,-0.0943992,0.0680216,0.0635315,0.1229493,-0.0072273,-0.0928363,-0.11
 1872,-0.0676693,-0.1159786,-0.0118619,-0.0535383,-0.1370725,-0.0477384
 ,-0.0237901,-0.0081989,-0.0207955,0.0884472,-0.0242314,-0.0653545,-0.0
 248382,0.195738,0.0603105,-0.3095401,0.0312589,-0.0000602,0.0225371,-0
 .0080978,-0.1324251,0.0883929,0.0016978,0.0908372,-0.1871541,0.0296753
 ,0.0304012,0.0684386,0.0187597,0.0462565,-0.0325902,0.1341264,-0.04257
 94,-0.1050977,-0.0682709,0.0329284,-0.1066168,0.0344951,0.04901,0.0290
 567,-0.1763817,0.0378085,-0.0563861,-0.5832405,-0.094872,-0.141135,-0.
 1200893,-0.5348998,0.193132,-0.0758298,0.1033695,-0.9096051,-0.5128048
 ,0.1956712,-0.1472322,0.2360662,-0.8706242,-0.2781805,-0.1109549,-0.33
 08354,-0.8520075,0.2158782,-0.2162796,0.0770748,-0.1757105,0.3108978,0
 .0073209,0.1052721,0.0161094,0.3402363,0.0708444,0.0827436,0.0128828,0
 .0777845,0.041095,-0.0245435,0.0986669,-0.1397672,0.4189494|Polar=67.9
 418294,4.5449911,68.9225665,0.292056,2.24416,61.805074|PG=C01 [X(C4H9N
 1O1)]|NImag=0||0.46276556,0.08075483,0.54402960,-0.06068799,-0.0205787
 9,0.54073801,-0.03055659,-0.03300259,0.01364870,0.55917811,-0.02658725
 ,-0.01619456,0.00753227,0.05553670,0.43326794,-0.01213476,-0.01272600,
 -0.00111488,0.03836289,0.05495611,0.54611860,0.01046351,-0.00677229,0.
 00287138,-0.12633262,0.03902774,-0.00668970,0.42334051,-0.01653893,-0.
 03605420,0.00409368,0.03463911,-0.09840948,0.00599508,0.01480823,0.528
 79722,-0.00176262,-0.00113578,0.00065151,-0.00327897,0.00686964,-0.075
 95626,-0.00313203,-0.09906650,0.50642150,-0.08560851,0.02805654,0.0071
 2930,-0.03770948,-0.00504857,-0.00127225,-0.12679046,-0.03892611,0.001
 98866,0.54231141,0.03516502,-0.14954431,-0.00853919,0.00294158,0.01100
 488,-0.00128377,-0.03196890,-0.09786437,0.00495528,-0.04869867,0.41114
 273,0.00659008,-0.01262688,-0.08119530,-0.00277633,0.00228873,0.004230
 78,0.00978943,0.01293577,-0.07654625,0.02347044,0.00451809,0.60105898,
 -0.05183330,0.00209606,0.02131151,0.00249773,0.00398273,-0.00337021,-0
 .00120330,-0.00012600,0.00031021,-0.00231366,0.00583140,0.01384843,0.0
 6055678,0.00221308,-0.07248381,-0.05786544,0.00058192,0.00070611,-0.00
 086574,0.00129631,0.00077440,-0.00035646,0.00628448,-0.01065554,-0.028
 84716,-0.00541892,0.07600558,0.02436934,-0.05925162,-0.25242587,0.0002
 5716,0.00142381,0.00127248,-0.00013231,0.00040551,0.00000580,0.0001615
 9,0.00144184,-0.00076971,-0.01392191,0.06934387,0.28148288,-0.11534764
 ,-0.08803953,0.06964446,-0.00490130,0.00155251,-0.00130398,-0.00202285
 ,0.00280881,-0.00081834,0.00916976,0.01171439,-0.00627246,0.00022486,-
 0.00253251,0.00299775,0.13223832,-0.09071929,-0.16470595,0.09033906,0.
 00081062,-0.00034851,0.00006426,0.00144266,-0.00239187,0.00061153,-0.0
 1495365,-0.01692206,0.01315610,0.00475826,0.00686659,-0.00573736,0.101
 34641,0.17859037,0.07466454,0.09626062,-0.12604788,-0.00318188,-0.0015
 9169,0.00064417,-0.00120759,-0.00136750,-0.00000496,-0.00094263,-0.003
 87535,0.00138494,0.01698180,0.02132379,-0.01799227,-0.07515698,-0.0971
 4101,0.13175003,-0.00047142,-0.00038617,-0.00024440,-0.18434695,-0.067
 84608,-0.10813725,-0.01789067,-0.00912682,-0.01407488,-0.00171089,0.00
 055113,-0.00018448,-0.00032012,-0.00018827,-0.00044859,-0.00035526,-0.
 00037940,-0.00017193,0.20196578,0.00070617,-0.00535131,0.00127508,-0.0
 6457426,-0.07869336,-0.05279173,0.01664563,0.00692067,0.01073219,0.002
 33047,-0.00216282,-0.00020283,-0.00043450,-0.00001259,-0.00050661,-0.0
 0122046,-0.00005349,-0.00046372,0.07787692,0.09104472,0.00217855,0.002
 87826,0.00075772,-0.11559718,-0.05557827,-0.13947043,0.00276757,-0.002
 12732,-0.00127712,0.00091294,0.00064073,-0.00026511,0.00062434,0.00020
 377,0.00012144,0.00044544,0.00003306,0.00024344,0.11765049,0.05716223,
 0.14700537,0.00201743,0.00064196,0.00173741,-0.07864375,0.00916975,0.0
 6509969,-0.00707908,0.00465464,0.02341327,-0.00023650,0.00038473,-0.00
 079998,0.00018967,0.00002272,-0.00079299,-0.00020669,-0.00016345,-0.00
 033424,0.00868569,-0.00385361,-0.02284381,0.08051066,0.00387102,0.0009
 4838,0.00330139,0.00951462,-0.05205557,-0.02973387,0.00497093,-0.00232
 090,-0.01935238,0.00030367,-0.00092705,0.00019261,0.00034336,0.0001308
 8,-0.00169271,-0.00042637,-0.00010831,-0.00060957,0.00427144,0.0000114
 5,-0.01077027,-0.00908334,0.06292166,-0.00162939,0.00003838,0.00120292
 ,0.06543214,-0.03450075,-0.24523551,-0.00354250,0.00180161,-0.00095917
 ,0.00000579,-0.00002994,-0.00033613,0.00176431,0.00037942,0.00045312,0
 .00065734,0.00023202,0.00019788,0.00726333,-0.00432084,-0.01873300,-0.
 07894647,0.02563372,0.27304666,-0.00254570,-0.00126694,0.00068643,0.00
 058301,0.01876431,-0.01983452,-0.05153700,0.00072043,-0.00249352,-0.00
 114543,-0.01600410,0.01937291,0.00029362,-0.00012436,0.00001055,0.0004
 9308,-0.00072957,-0.00009893,-0.00098958,-0.00010819,-0.00019422,0.001
 29078,-0.00025564,0.00028194,0.05424053,-0.00008176,-0.00046715,0.0010
 6876,-0.00056409,-0.00860250,0.01314607,0.00016631,-0.14639898,0.12862
 991,-0.00059283,-0.00737338,0.01275197,0.00003548,-0.00007584,-0.00025
 671,0.00014502,-0.00069823,-0.00005087,0.00094970,-0.00051246,0.000449
 72,0.00021991,0.00008066,-0.00048119,-0.00264472,0.15827384,0.00002077
 ,-0.00003829,-0.00028095,0.00374274,-0.00080187,0.00045447,-0.00333222
 ,0.12578840,-0.20332367,-0.00290323,-0.00052314,0.00235122,0.00004848,
 -0.00000293,0.00008350,-0.00000009,0.00021996,0.00003094,0.00011714,-0
 .00006479,0.00025150,-0.00022833,-0.00014143,0.00155237,0.00042484,-0.
 12572833,0.23286725,-0.00428402,0.00080490,0.01000206,-0.00092146,-0.0
 0161296,-0.00080884,-0.01590100,-0.00055857,0.02369218,-0.10223105,0.0
 1655706,0.10343826,-0.00003504,0.00092913,-0.00018149,0.00080905,-0.00
 048806,-0.00067785,-0.00053831,0.00045814,-0.00006775,0.00014941,-0.00
 001116,0.00004407,-0.00217127,-0.00113201,-0.00032420,0.11058156,0.014
 34526,-0.00864387,-0.03039836,-0.00028315,-0.00208401,-0.00029175,-0.0
 1379188,-0.00066659,0.01949318,0.01744952,-0.04755384,-0.02766974,0.00
 335729,-0.00473784,-0.00024675,-0.00078285,0.00179239,-0.00022055,-0.0
 0019413,0.00045954,-0.00001367,0.00006201,-0.00002291,-0.00001377,-0.0
 0215287,-0.00179952,-0.00060779,-0.01534067,0.05950283,-0.00136588,0.0
 0058821,-0.00045963,-0.00011384,-0.00004892,-0.00034404,-0.00005420,-0
 .00030033,-0.00303945,0.10528989,-0.02771636,-0.25038914,-0.00001652,-
 0.00031575,0.00111035,-0.00037111,-0.00048650,0.00118395,0.00018452,0.
 00003838,0.00000507,0.00004007,0.00002887,-0.00006640,0.00087257,0.000
 17363,0.00030369,-0.11496056,0.03221810,0.27078155,-0.00562602,-0.0001
 3643,-0.00796334,-0.00190549,-0.00078515,-0.00061199,-0.01390152,0.006
 30330,-0.01700574,-0.15764130,0.03130736,-0.12434439,0.00047888,-0.000
 25526,0.00055333,-0.00030312,0.00061989,-0.00008472,-0.00079374,0.0003
 0363,-0.00004883,-0.00023156,0.00018385,0.00024413,0.00168227,0.000025
 64,0.00043628,0.01099715,-0.00325538,0.01218489,0.17129206,0.01951796,
 -0.00349292,0.02294049,-0.00168666,-0.00198296,0.00045550,-0.01400159,
 0.00423203,-0.01649829,0.03149660,-0.05669094,0.03600856,-0.00034633,0
 .00176487,-0.00041874,-0.00014275,-0.00097030,0.00017898,-0.00028289,0
 .00035587,-0.00002690,-0.00023916,0.00039601,-0.00006375,0.00059438,0.
 00083730,-0.00038722,-0.00290543,0.00085327,-0.00293074,-0.03379091,0.
 06282038,0.00418373,-0.00359460,0.00178902,0.00140881,0.00012026,-0.00
 002568,0.00592812,0.00190357,0.00130745,-0.12821361,0.03606532,-0.1934
 9240,0.00013862,0.00038218,0.00135540,-0.00022089,0.00023683,0.0001190
 7,-0.00006191,-0.00006181,-0.00000643,0.00003394,-0.00007844,0.0000739
 5,0.00001520,-0.00057073,0.00128970,-0.02023487,0.00604826,-0.02084269
 ,0.13712952,-0.03877154,0.20748041,-0.15857544,-0.01069573,-0.06617881
 ,-0.10534492,-0.02435426,0.02198112,0.00197011,0.02019817,-0.01240350,
 -0.03119588,0.01513908,-0.01511135,-0.01134740,-0.00174443,-0.01253649
 ,-0.01952649,-0.00065540,-0.01020494,-0.00695668,-0.02738860,0.0137340
 2,-0.00342294,-0.01844283,0.00754418,-0.00466012,0.00209342,-0.0002228
 3,0.00022758,-0.00058575,0.00027827,-0.00164991,0.00210284,0.00057150,
 0.53772441,-0.01022131,-0.09432312,-0.00875148,-0.02899619,-0.15362069
 ,0.05930179,0.00762025,-0.03806520,0.01692627,0.02911586,-0.00998362,0
 .01476491,-0.01356202,0.00183497,-0.00419405,-0.02526581,0.00019356,-0
 .01307461,-0.00428093,-0.01250987,0.00672559,-0.00493285,-0.00818262,0
 .01148503,0.00224352,-0.00224572,-0.00011189,0.00027655,0.00118232,0.0
 0081538,0.00126153,-0.00594067,-0.00014144,-0.12716405,0.60056693,-0.0
 1609099,-0.00218505,-0.07820882,0.00474770,0.01261095,-0.07471800,-0.0
 0525439,0.00355391,-0.00016351,-0.00275159,0.00536598,0.00211198,-0.03
 891876,-0.00401166,-0.01642702,0.00954572,-0.00121195,0.00837097,-0.00
 148982,-0.01133566,0.00951983,0.01339960,0.03593700,-0.01412538,-0.000
 18662,0.00022841,0.00057624,-0.00044264,0.00026922,0.00065958,0.000084
 20,-0.00011282,0.00031836,0.01895445,-0.01412718,0.18053139,-0.0039289
 2,-0.00049102,-0.00107875,-0.00358022,0.01523058,0.02555964,-0.0695401
 0,-0.02254000,-0.00501380,0.00001883,-0.01997228,-0.02327807,0.0004820
 9,-0.00045891,-0.00000645,0.00050983,-0.00060005,0.00009003,0.00461967
 ,-0.00164766,0.00119217,-0.00336916,0.00503901,0.00114650,0.00335578,0
 .00089218,0.00175640,0.00237623,0.00075260,-0.00124833,-0.00161583,-0.
 00179400,-0.00051639,0.00073467,0.00034629,0.00072312,0.30241240,-0.00
 205486,-0.00067065,-0.00003681,0.00353052,-0.01331509,-0.02692325,0.00
 288225,-0.09782479,-0.06073179,-0.00420937,-0.02149684,-0.02384577,0.0
 0019704,-0.00053610,-0.00056605,0.00006829,-0.00105139,0.00007221,-0.0
 0238312,0.00238144,0.00039337,0.00323131,-0.00406208,-0.00106164,-0.00
 089397,0.00774466,0.00166493,0.00237685,0.00152838,-0.00121398,-0.0016
 1007,-0.00189684,-0.00118768,-0.00032560,-0.00003587,-0.00010502,0.241
 56752,0.37888515,-0.00059205,0.00085555,-0.00039350,0.00466066,-0.0116
 6657,-0.01100851,0.02730101,-0.02511096,-0.14095555,-0.00200150,-0.007
 90265,-0.00343447,0.00012425,-0.00027825,-0.00020341,-0.00008475,-0.00
 039160,-0.00005628,-0.00013181,0.00098320,0.00141969,0.00153616,-0.002
 15155,0.00074269,0.00194126,-0.02971004,-0.03738757,0.00113407,0.00117
 491,0.00088744,0.00007408,-0.00017466,-0.00015182,0.00082561,-0.000924
 25,0.00127712,-0.04844102,0.08510701,0.22475764,-0.00037869,0.00014782
 ,-0.00074093,0.00157828,0.00036190,0.00114803,-0.00120928,0.00720731,0
 .00932585,0.00015124,-0.00165080,-0.00023515,0.00014199,-0.00026178,-0
 .00004100,-0.00005966,0.00004365,0.00001085,-0.00078856,0.00044599,-0.
 00015369,-0.00014629,0.00007835,-0.00019563,0.00027770,0.00076744,0.00
 029242,0.00106048,0.00037803,-0.00090223,-0.00007399,-0.00022011,-0.00
 027254,-0.00014083,0.00026879,-0.00009877,-0.23291529,-0.24223953,0.01
 415319,0.23248821,-0.00053399,0.00000633,-0.00040659,-0.00099744,-0.00
 032990,0.00055842,-0.01960610,-0.01722637,0.00592388,-0.00005711,-0.00
 052470,-0.00322664,0.00010964,-0.00014868,0.00008909,0.00010753,-0.000
 01838,0.00001731,0.00178415,-0.00091326,0.00008007,-0.00024245,0.00074
 732,0.00055000,0.00066349,0.00224510,0.00061755,0.00062810,0.00019478,
 -0.00075371,-0.00016953,-0.00082885,-0.00030772,0.00028618,0.00031858,
 0.00002721,-0.21675015,-0.24918791,-0.00906836,0.23462133,0.26552264,-
 0.00119780,-0.00028117,0.00006844,-0.00069921,0.00045132,0.00006301,-0
 .02545112,-0.03141067,-0.00514236,0.00150794,-0.00344113,-0.00446594,0
 .00003228,0.00003236,-0.00001480,0.00016965,-0.00022792,0.00002810,0.0
 0026323,0.00013602,0.00020459,-0.00009317,0.00024145,0.00003024,-0.000
 36160,0.00016696,0.00098825,-0.00034175,-0.00019512,0.00023948,-0.0005
 7917,-0.00041026,0.00022432,-0.00014468,0.00054948,0.00004565,0.049070
 41,0.02840956,-0.03561892,-0.02223739,0.00590845,0.04326466,-0.0160902
 6,0.02828859,0.00986295,0.01040565,-0.01739194,0.00201213,-0.00236625,
 -0.00352358,0.00125323,-0.00506808,-0.00129701,-0.00350735,0.00218720,
 -0.00034318,-0.00028851,-0.00072189,-0.00033264,0.00031448,-0.00010894
 ,0.00046034,-0.00060003,0.00049234,-0.00035690,-0.00006974,0.00083233,
 -0.00027970,0.00017182,-0.00011931,0.00004199,0.00018247,-0.00070787,0
 .00169803,0.00011078,-0.19783616,0.17329037,0.01777879,0.00044002,-0.0
 0013725,-0.00049916,0.00001469,0.00015635,0.00006237,0.20864654,-0.009
 83595,0.00694755,-0.00397407,0.02254931,-0.01934231,-0.00986112,-0.002
 71956,-0.00350158,0.00299932,-0.00255081,-0.00044815,-0.00019770,-0.00
 082349,0.00056700,0.00016648,0.00066734,-0.00017443,0.00054195,-0.0003
 6552,-0.00096454,-0.00005037,0.00012784,0.00244308,0.00035169,0.001194
 23,-0.00100779,0.00011685,0.00001811,-0.00000494,-0.00009628,-0.000002
 45,0.00054375,-0.00004247,0.17153694,-0.27918898,-0.02490333,0.0004258
 9,-0.00046207,-0.00074178,0.00005161,0.00014329,0.00007066,-0.18027349
 ,0.29445011,-0.01654553,0.01179716,-0.00508080,-0.00661338,0.01793500,
 -0.00491020,0.00013855,0.00290575,-0.00101796,-0.00238175,0.00032429,-
 0.00024347,0.00104317,0.00087800,0.00194811,0.00076824,0.00030350,0.00
 014790,-0.00053363,-0.00057912,0.00022343,-0.00122115,-0.00080483,0.00
 215578,-0.00043627,0.00018243,0.00024306,-0.00027070,0.00045383,-0.000
 02977,-0.00006825,0.00021140,0.00056135,0.05291344,-0.06924355,-0.0197
 6839,0.00004454,0.00002492,0.00012545,-0.00005303,-0.00000896,0.000085
 26,-0.02678425,0.03562018,0.02556023||0.00002395,0.00000524,0.00000605
 ,0.00001407,-0.00001826,-0.00001421,-0.00002271,0.00004664,0.00005184,
 -0.00000817,-0.00001001,-0.00001853,0.00000608,-0.00000485,-0.00001344
 ,0.00001146,-0.00000146,-0.00001914,-0.00001174,0.00001022,0.00001177,
 0.00000409,0.00000899,0.00001435,0.00000381,-0.00000406,0.00000007,-0.
 00000646,-0.00000188,-0.00001373,0.00000494,-0.00001057,-0.00000456,-0
 .00000403,0.00000508,0.00002120,0.00000491,-0.00001985,-0.00003655,-0.
 00002252,-0.00000225,0.00000997,0.00000232,-0.00000298,0.00000492|||@


 EXPERIMENTALISTS THINK SILICON IS REALLY FUN TO USE
     ITS PLACE IN NOVEL COMPOUNDS IS CERTAIN TO AMUSE
 THEY SIT ALL DAY IN LABORATORIES MAKING ALL THIS SLUDGE
     "LOADED WITH THE SILICON THEY SAY", TO ME IT LOOKS LIKE FUDGE.
 FOR HAPPY THOUGH THEY BE WITH CRUD, I'D LIKE TO KNOW A LITTLE
      ABOUT THE PI BONDS ON THE EDGE AND SIGMAS IN THE MIDDLE.

 SO LETS DERIVE A WAVEFUNCTION.....6-31G*
     USE AN OPTIMAL GEOMETRY AND SEE WHERE ELECTRONS ARE.
 BUT WHAT OF CORRELATION?  ASKS THE WIRY LITTLE SKEPTIC.
     WE'LL THROW IN PERTURBATION AS AN ELECTRON ANTISEPTIC.
 AND WHEN THE PROGRAM GIVES US ANSWERS IN THEM WE CAN TRUST
     SINCE NOBODY CAN MAKE THE STUFF, WE HAVE NO CHOICE, WE MUST.

 SO THEORY GUYS HAVE GOT IT MADE, IN ROOMS FREE OF POLLUTION.
     INSTEAD OF PROBLEMS WITH THE REFLUX, THEY HAVE ONLY SOLUTIONS.
 AND WHEN THE FEDS ANNOUNCE THE LIST OF CARCINOGENIC TERRORS,
     THE THEORISTS SIT SAFELY AT THEIR TERMINALS FIXING ERRORS.
 IN OTHER WORDS, EXPERIMENTALISTS WILL LIKELY DIE OF CANCER
     FROM WORKING HARD YET FRUITLESSLY...TILL THEORY GIVES THE ANSWER.
          -- THOMAS A. HOLME, 1983
 Job cpu time:       0 days  0 hours  2 minutes  1.0 seconds.
 File lengths (MBytes):  RWF=     57 Int=      0 D2E=      0 Chk=      7 Scr=      1
 Normal termination of Gaussian 09 at Sat Apr 02 08:12:04 2022.
