Energy Calculation(GC)                                                  
Freq      RB3LYP                                                      6-311G              
Number of atoms                            I               15
Info1-9                                    I   N=           9
          41          40        1002           0           0         100
           6          18        -502
Charge                                     I                0
Multiplicity                               I                1
Number of electrons                        I               48
Number of alpha electrons                  I               24
Number of beta electrons                   I               24
Number of basis functions                  I              105
Number of independent functions            I              105
Number of point charges in /Mol/           I                0
Number of translation vectors              I                0
Atomic numbers                             I   N=          15
           6           6           6           6           1           1
           1           1           1           1           1           7
           8           1           1
Nuclear charges                            R   N=          15
  6.00000000E+00  6.00000000E+00  6.00000000E+00  6.00000000E+00  1.00000000E+00
  1.00000000E+00  1.00000000E+00  1.00000000E+00  1.00000000E+00  1.00000000E+00
  1.00000000E+00  7.00000000E+00  8.00000000E+00  1.00000000E+00  1.00000000E+00
Current cartesian coordinates              R   N=          45
 -2.86834070E+00 -1.12060381E+00 -1.05964450E-01 -6.30041878E-02  2.25723199E+00
  6.77348299E-01  1.56366394E+00 -1.56818461E-01  8.91135362E-01 -2.53035583E-01
 -2.35537446E+00  2.47381354E-01 -3.91344929E+00 -1.12503676E+00  1.69319137E+00
 -4.01951515E+00 -2.07960064E+00 -1.51702130E+00  9.92648854E-01  3.81237862E+00
 -1.62965280E-01 -6.80401400E-01  2.83408434E+00  2.57916868E+00  2.37625040E+00
 -3.29781397E-01  2.77852504E+00  3.99827933E-01 -3.19367279E+00 -1.51669572E+00
 -2.66024075E-01 -3.81901807E+00  1.69338066E+00 -2.20054809E+00  1.46650159E+00
 -9.42286329E-01  3.62267538E+00 -2.22816191E-01 -9.72287439E-01  4.93086759E+00
  9.78873345E-01 -4.94231725E-01 -3.67347201E+00  2.69218026E+00 -9.38451314E-01
Force Field                                I                0
Int Atom Types                             I   N=          15
           0           0           0           0           0           0
           0           0           0           0           0           0
           0           0           0
MM charges                                 R   N=          15
  0.00000000E+00  0.00000000E+00  0.00000000E+00  0.00000000E+00  0.00000000E+00
  0.00000000E+00  0.00000000E+00  0.00000000E+00  0.00000000E+00  0.00000000E+00
  0.00000000E+00  0.00000000E+00  0.00000000E+00  0.00000000E+00  0.00000000E+00
Integer atomic weights                     I   N=          15
          12          12          12          12           1           1
           1           1           1           1           1          14
          16           1           1
Real atomic weights                        R   N=          15
  1.20000000E+01  1.20000000E+01  1.20000000E+01  1.20000000E+01  1.00782504E+00
  1.00782504E+00  1.00782504E+00  1.00782504E+00  1.00782504E+00  1.00782504E+00
  1.00782504E+00  1.40030740E+01  1.59949146E+01  1.00782504E+00  1.00782504E+00
Atom fragment info                         I   N=          15
           0           0           0           0           0           0
           0           0           0           0           0           0
           0           0           0
Atom residue num                           I   N=          15
           0           0           0           0           0           0
           0           0           0           0           0           0
           0           0           0
Nuclear spins                              I   N=          15
           0           0           0           0           1           1
           1           1           1           1           1           2
           0           1           1
Nuclear ZEff                               R   N=          15
 -3.60000000E+00 -3.60000000E+00 -3.60000000E+00 -3.60000000E+00 -1.00000000E+00
 -1.00000000E+00 -1.00000000E+00 -1.00000000E+00 -1.00000000E+00 -1.00000000E+00
 -1.00000000E+00 -4.55000000E+00 -5.60000000E+00 -1.00000000E+00 -1.00000000E+00
Nuclear ZNuc                               R   N=          15
  6.00000000E+00  6.00000000E+00  6.00000000E+00  6.00000000E+00  1.00000000E+00
  1.00000000E+00  1.00000000E+00  1.00000000E+00  1.00000000E+00  1.00000000E+00
  1.00000000E+00  7.00000000E+00  8.00000000E+00  1.00000000E+00  1.00000000E+00
Nuclear QMom                               R   N=          15
  0.00000000E+00  0.00000000E+00  0.00000000E+00  0.00000000E+00  0.00000000E+00
  0.00000000E+00  0.00000000E+00  0.00000000E+00  0.00000000E+00  0.00000000E+00
  0.00000000E+00  2.04400000E+00  0.00000000E+00  0.00000000E+00  0.00000000E+00
Nuclear GFac                               R   N=          15
  0.00000000E+00  0.00000000E+00  0.00000000E+00  0.00000000E+00  2.79284600E+00
  2.79284600E+00  2.79284600E+00  2.79284600E+00  2.79284600E+00  2.79284600E+00
  2.79284600E+00  4.03761000E-01  0.00000000E+00  2.79284600E+00  2.79284600E+00
MicOpt                                     I   N=          15
          -1          -1          -1          -1          -1          -1
          -1          -1          -1          -1          -1          -1
          -1          -1          -1
Number of contracted shells                I               51
Number of primitive shells                 I              111
Pure/Cartesian d shells                    I                0
Pure/Cartesian f shells                    I                0
Highest angular momentum                   I                1
Largest degree of contraction              I                6
Shell types                                I   N=          51
           0          -1          -1          -1           0          -1
          -1          -1           0          -1          -1          -1
           0          -1          -1          -1           0           0
           0           0           0           0           0           0
           0           0           0           0           0           0
           0           0           0           0           0           0
           0           0          -1          -1          -1           0
          -1          -1          -1           0           0           0
           0           0           0
Number of primitives per shell             I   N=          51
           6           3           1           1           6           3
           1           1           6           3           1           1
           6           3           1           1           3           1
           1           3           1           1           3           1
           1           3           1           1           3           1
           1           3           1           1           3           1
           1           6           3           1           1           6
           3           1           1           3           1           1
           3           1           1
Shell to atom map                          I   N=          51
           1           1           1           1           2           2
           2           2           3           3           3           3
           4           4           4           4           5           5
           5           6           6           6           7           7
           7           8           8           8           9           9
           9          10          10          10          11          11
          11          12          12          12          12          13
          13          13          13          14          14          14
          15          15          15
Primitive exponents                        R   N=         111
  4.56324000E+03  6.82024000E+02  1.54973000E+02  4.44553000E+01  1.30290000E+01
  1.82773000E+00  2.09642000E+01  4.80331000E+00  1.45933000E+00  4.83456000E-01
  1.45585000E-01  4.56324000E+03  6.82024000E+02  1.54973000E+02  4.44553000E+01
  1.30290000E+01  1.82773000E+00  2.09642000E+01  4.80331000E+00  1.45933000E+00
  4.83456000E-01  1.45585000E-01  4.56324000E+03  6.82024000E+02  1.54973000E+02
  4.44553000E+01  1.30290000E+01  1.82773000E+00  2.09642000E+01  4.80331000E+00
  1.45933000E+00  4.83456000E-01  1.45585000E-01  4.56324000E+03  6.82024000E+02
  1.54973000E+02  4.44553000E+01  1.30290000E+01  1.82773000E+00  2.09642000E+01
  4.80331000E+00  1.45933000E+00  4.83456000E-01  1.45585000E-01  3.38650000E+01
  5.09479000E+00  1.15879000E+00  3.25840000E-01  1.02741000E-01  3.38650000E+01
  5.09479000E+00  1.15879000E+00  3.25840000E-01  1.02741000E-01  3.38650000E+01
  5.09479000E+00  1.15879000E+00  3.25840000E-01  1.02741000E-01  3.38650000E+01
  5.09479000E+00  1.15879000E+00  3.25840000E-01  1.02741000E-01  3.38650000E+01
  5.09479000E+00  1.15879000E+00  3.25840000E-01  1.02741000E-01  3.38650000E+01
  5.09479000E+00  1.15879000E+00  3.25840000E-01  1.02741000E-01  3.38650000E+01
  5.09479000E+00  1.15879000E+00  3.25840000E-01  1.02741000E-01  6.29348000E+03
  9.49044000E+02  2.18776000E+02  6.36916000E+01  1.88282000E+01  2.72023000E+00
  3.06331000E+01  7.02614000E+00  2.11205000E+00  6.84009000E-01  2.00878000E-01
  8.58850000E+03  1.29723000E+03  2.99296000E+02  8.73771000E+01  2.56789000E+01
  3.74004000E+00  4.21175000E+01  9.62837000E+00  2.85332000E+00  9.05661000E-01
  2.55611000E-01  3.38650000E+01  5.09479000E+00  1.15879000E+00  3.25840000E-01
  1.02741000E-01  3.38650000E+01  5.09479000E+00  1.15879000E+00  3.25840000E-01
  1.02741000E-01
Contraction coefficients                   R   N=         111
  1.96665025E-03  1.52306019E-02  7.61269097E-02  2.60801033E-01  6.16462078E-01
  2.21006028E-01  1.14660081E-01  9.19999648E-01 -3.03068213E-03  1.00000000E+00
  1.00000000E+00  1.96665025E-03  1.52306019E-02  7.61269097E-02  2.60801033E-01
  6.16462078E-01  2.21006028E-01  1.14660081E-01  9.19999648E-01 -3.03068213E-03
  1.00000000E+00  1.00000000E+00  1.96665025E-03  1.52306019E-02  7.61269097E-02
  2.60801033E-01  6.16462078E-01  2.21006028E-01  1.14660081E-01  9.19999648E-01
 -3.03068213E-03  1.00000000E+00  1.00000000E+00  1.96665025E-03  1.52306019E-02
  7.61269097E-02  2.60801033E-01  6.16462078E-01  2.21006028E-01  1.14660081E-01
  9.19999648E-01 -3.03068213E-03  1.00000000E+00  1.00000000E+00  2.54938145E-02
  1.90373109E-01  8.52161486E-01  1.00000000E+00  1.00000000E+00  2.54938145E-02
  1.90373109E-01  8.52161486E-01  1.00000000E+00  1.00000000E+00  2.54938145E-02
  1.90373109E-01  8.52161486E-01  1.00000000E+00  1.00000000E+00  2.54938145E-02
  1.90373109E-01  8.52161486E-01  1.00000000E+00  1.00000000E+00  2.54938145E-02
  1.90373109E-01  8.52161486E-01  1.00000000E+00  1.00000000E+00  2.54938145E-02
  1.90373109E-01  8.52161486E-01  1.00000000E+00  1.00000000E+00  2.54938145E-02
  1.90373109E-01  8.52161486E-01  1.00000000E+00  1.00000000E+00  1.96978815E-03
  1.49612859E-02  7.35005308E-02  2.48936766E-01  6.02459433E-01  2.56201759E-01
  1.11906080E-01  9.21666655E-01 -2.56919183E-03  1.00000000E+00  1.00000000E+00
  1.89515008E-03  1.43859006E-02  7.07320031E-02  2.40001011E-01  5.94797026E-01
  2.80802012E-01  1.13889012E-01  9.20811101E-01 -3.27447036E-03  1.00000000E+00
  1.00000000E+00  2.54938145E-02  1.90373109E-01  8.52161486E-01  1.00000000E+00
  1.00000000E+00  2.54938145E-02  1.90373109E-01  8.52161486E-01  1.00000000E+00
  1.00000000E+00
P(S=P) Contraction coefficients            R   N=         111
  0.00000000E+00  0.00000000E+00  0.00000000E+00  0.00000000E+00  0.00000000E+00
  0.00000000E+00  4.02486927E-02  2.37593957E-01  8.15853851E-01  1.00000000E+00
  1.00000000E+00  0.00000000E+00  0.00000000E+00  0.00000000E+00  0.00000000E+00
  0.00000000E+00  0.00000000E+00  4.02486927E-02  2.37593957E-01  8.15853851E-01
  1.00000000E+00  1.00000000E+00  0.00000000E+00  0.00000000E+00  0.00000000E+00
  0.00000000E+00  0.00000000E+00  0.00000000E+00  4.02486927E-02  2.37593957E-01
  8.15853851E-01  1.00000000E+00  1.00000000E+00  0.00000000E+00  0.00000000E+00
  0.00000000E+00  0.00000000E+00  0.00000000E+00  0.00000000E+00  4.02486927E-02
  2.37593957E-01  8.15853851E-01  1.00000000E+00  1.00000000E+00  0.00000000E+00
  0.00000000E+00  0.00000000E+00  0.00000000E+00  0.00000000E+00  0.00000000E+00
  0.00000000E+00  0.00000000E+00  0.00000000E+00  0.00000000E+00  0.00000000E+00
  0.00000000E+00  0.00000000E+00  0.00000000E+00  0.00000000E+00  0.00000000E+00
  0.00000000E+00  0.00000000E+00  0.00000000E+00  0.00000000E+00  0.00000000E+00
  0.00000000E+00  0.00000000E+00  0.00000000E+00  0.00000000E+00  0.00000000E+00
  0.00000000E+00  0.00000000E+00  0.00000000E+00  0.00000000E+00  0.00000000E+00
  0.00000000E+00  0.00000000E+00  0.00000000E+00  0.00000000E+00  0.00000000E+00
  0.00000000E+00  0.00000000E+00  0.00000000E+00  0.00000000E+00  0.00000000E+00
  3.83119186E-02  2.37403116E-01  8.17592398E-01  1.00000000E+00  1.00000000E+00
  0.00000000E+00  0.00000000E+00  0.00000000E+00  0.00000000E+00  0.00000000E+00
  0.00000000E+00  3.65113974E-02  2.37152983E-01  8.19701941E-01  1.00000000E+00
  1.00000000E+00  0.00000000E+00  0.00000000E+00  0.00000000E+00  0.00000000E+00
  0.00000000E+00  0.00000000E+00  0.00000000E+00  0.00000000E+00  0.00000000E+00
  0.00000000E+00
Coordinates of each shell                  R   N=         153
 -2.86834070E+00 -1.12060381E+00 -1.05964450E-01 -2.86834070E+00 -1.12060381E+00
 -1.05964450E-01 -2.86834070E+00 -1.12060381E+00 -1.05964450E-01 -2.86834070E+00
 -1.12060381E+00 -1.05964450E-01 -6.30041878E-02  2.25723199E+00  6.77348299E-01
 -6.30041878E-02  2.25723199E+00  6.77348299E-01 -6.30041878E-02  2.25723199E+00
  6.77348299E-01 -6.30041878E-02  2.25723199E+00  6.77348299E-01  1.56366394E+00
 -1.56818461E-01  8.91135362E-01  1.56366394E+00 -1.56818461E-01  8.91135362E-01
  1.56366394E+00 -1.56818461E-01  8.91135362E-01  1.56366394E+00 -1.56818461E-01
  8.91135362E-01 -2.53035583E-01 -2.35537446E+00  2.47381354E-01 -2.53035583E-01
 -2.35537446E+00  2.47381354E-01 -2.53035583E-01 -2.35537446E+00  2.47381354E-01
 -2.53035583E-01 -2.35537446E+00  2.47381354E-01 -3.91344929E+00 -1.12503676E+00
  1.69319137E+00 -3.91344929E+00 -1.12503676E+00  1.69319137E+00 -3.91344929E+00
 -1.12503676E+00  1.69319137E+00 -4.01951515E+00 -2.07960064E+00 -1.51702130E+00
 -4.01951515E+00 -2.07960064E+00 -1.51702130E+00 -4.01951515E+00 -2.07960064E+00
 -1.51702130E+00  9.92648854E-01  3.81237862E+00 -1.62965280E-01  9.92648854E-01
  3.81237862E+00 -1.62965280E-01  9.92648854E-01  3.81237862E+00 -1.62965280E-01
 -6.80401400E-01  2.83408434E+00  2.57916868E+00 -6.80401400E-01  2.83408434E+00
  2.57916868E+00 -6.80401400E-01  2.83408434E+00  2.57916868E+00  2.37625040E+00
 -3.29781397E-01  2.77852504E+00  2.37625040E+00 -3.29781397E-01  2.77852504E+00
  2.37625040E+00 -3.29781397E-01  2.77852504E+00  3.99827933E-01 -3.19367279E+00
 -1.51669572E+00  3.99827933E-01 -3.19367279E+00 -1.51669572E+00  3.99827933E-01
 -3.19367279E+00 -1.51669572E+00 -2.66024075E-01 -3.81901807E+00  1.69338066E+00
 -2.66024075E-01 -3.81901807E+00  1.69338066E+00 -2.66024075E-01 -3.81901807E+00
  1.69338066E+00 -2.20054809E+00  1.46650159E+00 -9.42286329E-01 -2.20054809E+00
  1.46650159E+00 -9.42286329E-01 -2.20054809E+00  1.46650159E+00 -9.42286329E-01
 -2.20054809E+00  1.46650159E+00 -9.42286329E-01  3.62267538E+00 -2.22816191E-01
 -9.72287439E-01  3.62267538E+00 -2.22816191E-01 -9.72287439E-01  3.62267538E+00
 -2.22816191E-01 -9.72287439E-01  3.62267538E+00 -2.22816191E-01 -9.72287439E-01
  4.93086759E+00  9.78873345E-01 -4.94231725E-01  4.93086759E+00  9.78873345E-01
 -4.94231725E-01  4.93086759E+00  9.78873345E-01 -4.94231725E-01 -3.67347201E+00
  2.69218026E+00 -9.38451314E-01 -3.67347201E+00  2.69218026E+00 -9.38451314E-01
 -3.67347201E+00  2.69218026E+00 -9.38451314E-01
Constraint Structure                       R   N=          45
 -2.86834070E+00 -1.12060381E+00 -1.05964450E-01 -6.30041878E-02  2.25723199E+00
  6.77348299E-01  1.56366394E+00 -1.56818461E-01  8.91135362E-01 -2.53035583E-01
 -2.35537446E+00  2.47381354E-01 -3.91344929E+00 -1.12503676E+00  1.69319137E+00
 -4.01951515E+00 -2.07960064E+00 -1.51702130E+00  9.92648854E-01  3.81237862E+00
 -1.62965280E-01 -6.80401400E-01  2.83408434E+00  2.57916868E+00  2.37625040E+00
 -3.29781397E-01  2.77852504E+00  3.99827933E-01 -3.19367279E+00 -1.51669572E+00
 -2.66024075E-01 -3.81901807E+00  1.69338066E+00 -2.20054809E+00  1.46650159E+00
 -9.42286329E-01  3.62267538E+00 -2.22816191E-01 -9.72287439E-01  4.93086759E+00
  9.78873345E-01 -4.94231725E-01 -3.67347201E+00  2.69218026E+00 -9.38451314E-01
Num ILSW                                   I              100
ILSW                                       I   N=         100
           0           0           0           0           2           0
           0           0           0           0         402          -1
           0           0           0           0           2           0
           0           0           1           0           1           0
           1           0           0           0           0           0
           0           0      100000           0          -1           0
           0           0           0           0           0           0
           0           0           0           1           0           0
           0           0           1           0           0           0
           0           0           4          41           0           0
           0           0           5           0           0           0
           0           0           0           0           0           0
           0           0           0           0           0           0
           0           0           0           0           0           0
           0           0           0           0           0           0
           0           0           0           0           0           0
           0           0           0           0
Num RLSW                                   I               41
RLSW                                       R   N=          41
  8.00000000E-01  7.20000000E-01  1.00000000E+00  8.10000000E-01  2.00000000E-01
  0.00000000E+00  0.00000000E+00  1.00000000E+00  0.00000000E+00  0.00000000E+00
  0.00000000E+00  0.00000000E+00  1.00000000E+00  0.00000000E+00  0.00000000E+00
  0.00000000E+00  0.00000000E+00  1.00000000E+00  0.00000000E+00  0.00000000E+00
  0.00000000E+00  0.00000000E+00  1.00000000E+00  0.00000000E+00  0.00000000E+00
  0.00000000E+00  0.00000000E+00  1.00000000E+00  0.00000000E+00  0.00000000E+00
  0.00000000E+00  0.00000000E+00  1.00000000E+00  0.00000000E+00  0.00000000E+00
  0.00000000E+00  0.00000000E+00  0.00000000E+00  1.00000000E+00  1.00000000E+00
  0.00000000E+00
MxBond                                     I                4
NBond                                      I   N=          15
           4           4           4           4           1           1
           1           1           1           1           1           3
           2           1           1
IBond                                      I   N=          60
           4           5           6          12           3           7
           8          12           2           4           9          13
           1           3          10          11           1           0
           0           0           1           0           0           0
           2           0           0           0           2           0
           0           0           3           0           0           0
           4           0           0           0           4           0
           0           0           1           2          15           0
           3          14           0           0          13           0
           0           0          12           0           0           0
RBond                                      R   N=          60
  1.00000000E+00  1.00000000E+00  1.00000000E+00  1.00000000E+00  1.00000000E+00
  1.00000000E+00  1.00000000E+00  1.00000000E+00  1.00000000E+00  1.00000000E+00
  1.00000000E+00  1.00000000E+00  1.00000000E+00  1.00000000E+00  1.00000000E+00
  1.00000000E+00  1.00000000E+00  0.00000000E+00  0.00000000E+00  0.00000000E+00
  1.00000000E+00  0.00000000E+00  0.00000000E+00  0.00000000E+00  1.00000000E+00
  0.00000000E+00  0.00000000E+00  0.00000000E+00  1.00000000E+00  0.00000000E+00
  0.00000000E+00  0.00000000E+00  1.00000000E+00  0.00000000E+00  0.00000000E+00
  0.00000000E+00  1.00000000E+00  0.00000000E+00  0.00000000E+00  0.00000000E+00
  1.00000000E+00  0.00000000E+00  0.00000000E+00  0.00000000E+00  1.00000000E+00
  1.00000000E+00  1.00000000E+00  0.00000000E+00  1.00000000E+00  1.00000000E+00
  0.00000000E+00  0.00000000E+00  1.00000000E+00  0.00000000E+00  0.00000000E+00
  0.00000000E+00  1.00000000E+00  0.00000000E+00  0.00000000E+00  0.00000000E+00
Virial Ratio                               R      2.003194644335135E+00
SCF Energy                                 R     -2.877900575407721E+02
Total Energy                               R     -2.877900575407721E+02
RMS Force                                  R      1.633150584429789E-05
RMS Density                                R      4.098870345370427E-09
External E-field                           R   N=          35
  0.00000000E+00  0.00000000E+00  0.00000000E+00  0.00000000E+00  0.00000000E+00
  0.00000000E+00  0.00000000E+00  0.00000000E+00  0.00000000E+00  0.00000000E+00
  0.00000000E+00  0.00000000E+00  0.00000000E+00  0.00000000E+00  0.00000000E+00
  0.00000000E+00  0.00000000E+00  0.00000000E+00  0.00000000E+00  0.00000000E+00
  0.00000000E+00  0.00000000E+00  0.00000000E+00  0.00000000E+00  0.00000000E+00
  0.00000000E+00  0.00000000E+00  0.00000000E+00  0.00000000E+00  0.00000000E+00
  0.00000000E+00  0.00000000E+00  0.00000000E+00  0.00000000E+00  0.00000000E+00
IOpCl                                      I                0
IROHF                                      I                0
Alpha Orbital Energies                     R   N=         105
 -1.91147676E+01 -1.42941717E+01 -1.02289383E+01 -1.01937815E+01 -1.01936834E+01
 -1.01689010E+01 -1.01805822E+00 -9.15342712E-01 -7.60779337E-01 -7.25775273E-01
 -6.07614497E-01 -5.79413395E-01 -5.25637439E-01 -5.11227675E-01 -4.59746336E-01
 -4.32685788E-01 -4.02644791E-01 -3.81665753E-01 -3.73636407E-01 -3.61595338E-01
 -3.57390599E-01 -3.23297392E-01 -2.74639896E-01 -2.19376129E-01  3.64285145E-02
  5.18365613E-02  7.49313497E-02  8.27885232E-02  9.99317648E-02  1.08126740E-01
  1.13951213E-01  1.30871532E-01  1.44661926E-01  1.68440413E-01  1.72568737E-01
  2.04969603E-01  2.16144634E-01  2.54147709E-01  2.90483591E-01  3.57448238E-01
  3.69446778E-01  3.87171416E-01  3.92472423E-01  4.05663451E-01  4.25212275E-01
  4.54251223E-01  4.66083854E-01  4.86148689E-01  5.05180814E-01  5.38342816E-01
  5.42265623E-01  5.58944651E-01  5.64564522E-01  5.89854299E-01  6.02341087E-01
  6.13282905E-01  6.22460017E-01  6.37275530E-01  6.43710833E-01  7.01886578E-01
  7.08323138E-01  7.75907092E-01  8.28415041E-01  8.72613274E-01  9.17173468E-01
  9.38195345E-01  9.63892829E-01  1.03594428E+00  1.14715075E+00  1.26066526E+00
  1.32211080E+00  1.60603260E+00  2.18671924E+00  2.23719694E+00  2.24513472E+00
  2.24823435E+00  2.26787308E+00  2.29424581E+00  2.30372377E+00  2.31383992E+00
  2.35658647E+00  2.69563262E+00  2.74114297E+00  2.75294083E+00  2.78278708E+00
  2.82181615E+00  2.85754301E+00  2.93636792E+00  2.97874650E+00  2.98272759E+00
  3.08038353E+00  3.12037068E+00  3.18995679E+00  3.78990440E+00  3.97511976E+00
  4.05530482E+00  4.84641191E+00  4.90187807E+00  5.05514166E+00  2.32966926E+01
  2.34481369E+01  2.35082567E+01  2.36727623E+01  3.53975632E+01  4.98361548E+01
Alpha MO coefficients                      R   N=       11025
  1.13773530E-06 -6.97706882E-06 -3.68624147E-05 -1.86901692E-05  2.53500599E-05
 -6.28167214E-05  1.76746902E-04  1.06352632E-04 -8.87602327E-05  2.07467664E-03
  6.50180854E-04  2.47379490E-04 -2.67293990E-04 -4.07524643E-06  2.74686122E-05
  8.58380862E-05 -8.18414060E-05 -3.72370604E-05  2.29983593E-05 -4.36128944E-04
  3.74515397E-04  1.01737102E-04 -2.27514349E-03 -5.12174922E-04  7.55643636E-05
  4.64505128E-04 -1.25793991E-05  8.62891468E-05  9.84230876E-05 -2.22468000E-05
 -1.83319443E-04 -1.17665607E-03  3.08120125E-04  2.06294931E-05  1.84363004E-04
  8.65033728E-03  5.08856910E-04 -3.20688355E-04 -3.73139259E-03 -9.71492526E-07
  6.87913798E-06  3.26518942E-05  6.55466117E-05  1.98701429E-05  2.28437319E-04
 -2.28221017E-04 -3.20890098E-04 -5.36749542E-05 -4.58091267E-03 -7.40266998E-04
 -1.10930177E-03  9.90845232E-04  2.89849142E-05 -1.51396293E-04  8.49277187E-05
 -7.20907453E-07 -1.65813387E-04 -7.82815093E-05 -1.08056870E-05  3.10214314E-04
  2.46003348E-04 -3.89446306E-05  1.05529348E-04  1.40456121E-04 -5.55424350E-05
 -5.23034475E-04  5.30202817E-04 -8.51211469E-05  6.56342714E-04  5.05820135E-04
 -8.66384585E-07  1.45137290E-04 -2.56013465E-04  3.60814416E-06 -3.96771693E-05
 -3.73649085E-05  2.53034725E-05  1.91848429E-06  3.57563065E-04  1.67353440E-04
 -1.24417475E-04  1.81576165E-05 -9.12602545E-04 -4.94077605E-04  1.04269259E-03
 -2.45382486E-04  5.51316596E-01  4.69831857E-01  1.84927711E-04  1.16422097E-03
  1.40487715E-03  1.31054723E-02 -3.91468572E-04 -2.65671617E-04 -8.74602367E-05
 -9.55953857E-03  1.79727528E-03 -4.63437129E-04 -1.70293039E-03 -8.95265121E-06
  9.64115762E-04  3.58511685E-05  4.23783801E-05 -3.21930959E-04 -2.34369518E-04
 -8.63557284E-07  5.35381709E-05  6.50755551E-05  1.58235912E-04 -1.00720517E-04
 -3.08587517E-04 -7.44896071E-05  1.63958383E-04  1.11210735E-04  5.95729089E-03
  8.55335125E-04  2.18116949E-03 -4.06069000E-04 -1.37157031E-06  5.72819761E-05
 -1.12602339E-04 -6.31759274E-05 -1.64119380E-04 -3.39490302E-04 -2.04492075E-04
  4.90679367E-05  1.15832233E-04  5.75524866E-03 -1.93006829E-03 -1.13887838E-03
 -9.40347375E-04 -3.74507666E-06  1.86488213E-05  2.28247277E-05  4.92001684E-05
 -4.05748322E-06 -1.76907638E-04  1.11753018E-04 -2.58654985E-04  7.72285298E-05
 -6.56893259E-04  5.85894984E-04  6.41345764E-05 -1.13608888E-03 -4.74581712E-06
  2.50598781E-05 -1.77864471E-05 -4.56497369E-05 -2.52474176E-05 -1.86121348E-04
  1.53318818E-04 -1.55642128E-05  1.29426731E-04 -8.29854002E-04  3.83011442E-04
 -3.12443599E-04 -4.66054770E-04 -1.66606700E-05 -7.78336015E-04 -6.46699702E-05
  4.83505371E-05 -7.07990037E-04  6.90677814E-05  5.14161567E-05 -6.58041343E-04
  1.88491655E-04 -2.33161014E-05 -8.12463970E-04 -8.82804370E-05 -7.61959825E-05
  4.88618459E-04  3.64349461E-04  1.09567936E-04 -4.17173712E-04 -2.24557791E-04
 -4.14493736E-05  2.55685124E-04  2.52913110E-04  5.57364359E-01  4.65937147E-01
 -6.44646828E-04  1.76234303E-04  1.65853598E-03  1.52880616E-02  3.87160155E-04
 -3.10551023E-04 -9.76000293E-05 -1.49084346E-02 -9.03247304E-04  1.41032396E-03
 -2.62222794E-03 -3.52808229E-06 -3.53687285E-05  2.79892510E-05 -4.84350363E-06
 -3.99256819E-06  3.10315100E-04 -1.27908622E-04  2.23706225E-05  1.96723019E-05
 -1.00728833E-03  5.38949635E-04 -9.82891883E-05 -1.41896809E-04 -7.81233447E-06
  9.88012690E-05 -2.11174263E-04 -2.17709631E-04  1.45745911E-03  3.04474065E-05
 -5.98500426E-06 -1.28550639E-05  2.11785435E-05 -7.59133434E-05 -6.26970361E-06
  2.38344786E-04 -2.72016840E-04  2.46480156E-04 -7.27316223E-06 -5.25809690E-03
 -1.90314034E-03 -7.41294869E-04  8.82602571E-04  1.38214923E-03  1.31570418E-03
  1.25900985E-04 -2.70313464E-04  2.94593940E-05 -1.33933205E-03 -8.99638772E-05
  4.79263279E-04 -8.72664923E-06  1.36816176E-02  1.89326475E-03 -5.23964031E-03
 -1.30396384E-03  5.62973277E-01  4.63739927E-01  7.11174800E-04 -5.91718513E-06
 -5.45328932E-04  1.82192094E-02 -9.21409775E-04  1.50038380E-04  5.60488999E-05
 -3.13658314E-02  6.62824834E-03 -5.68244535E-04  4.17110729E-03  8.02134433E-04
  8.16042920E-04  1.48481619E-04  2.29621698E-04  8.88792356E-05 -1.25461731E-03
 -1.16801577E-04 -3.58246667E-04 -1.63400994E-04  1.44273141E-02  1.99792742E-03
  5.86377423E-03 -1.72179957E-04  3.71064190E-05  1.37649641E-05 -4.61887277E-04
 -3.75605965E-05  6.16454065E-04  1.02331233E-04 -1.00464177E-05 -1.18373703E-03
  3.06749870E-04 -2.26279748E-05 -7.93846083E-04  6.92191847E-04 -3.18426985E-04
  1.54737286E-03  7.53217541E-04  7.40621417E-06 -1.26232526E-03  3.97864144E-04
 -2.51919216E-05 -6.63685882E-04  7.76263429E-04  5.32380680E-07  1.43566501E-05
  9.59180075E-06 -2.17520097E-05 -7.92817517E-06 -9.13311074E-05 -1.32036622E-04
  1.58576366E-04 -1.42319869E-05 -1.13326872E-03 -3.31554121E-04 -2.02414566E-03
 -4.28191077E-04 -5.86051587E-06  3.89664002E-05 -1.67539197E-04 -5.42575445E-06
  9.83330167E-05 -4.94907714E-04  3.15749629E-04  2.31867139E-05 -5.38870795E-05
  3.96268474E-03 -2.00920882E-03 -2.84828632E-05  4.14979577E-04 -1.56043695E-04
  5.81429107E-04  9.76944070E-05 -8.18975850E-05  8.96892892E-04  2.81610245E-04
  5.59150158E-01  4.60708568E-01  8.23122378E-05  3.99117519E-04 -1.47523438E-04
  1.74652298E-02  3.66287398E-04  1.27408183E-05  2.56215829E-04 -2.50163223E-02
 -5.11938743E-03 -5.46193956E-04 -1.70084851E-03 -6.47637265E-02 -5.32570094E-02