 Entering Link 1 = C:\G09W\l1.exe PID=     11072.
  
 Copyright (c) 1988,1990,1992,1993,1995,1998,2003,2009,2013,
            Gaussian, Inc.  All Rights Reserved.
  
 This is part of the Gaussian(R) 09 program.  It is based on
 the Gaussian(R) 03 system (copyright 2003, Gaussian, Inc.),
 the Gaussian(R) 98 system (copyright 1998, Gaussian, Inc.),
 the Gaussian(R) 94 system (copyright 1995, Gaussian, Inc.),
 the Gaussian 92(TM) system (copyright 1992, Gaussian, Inc.),
 the Gaussian 90(TM) system (copyright 1990, Gaussian, Inc.),
 the Gaussian 88(TM) system (copyright 1988, Gaussian, Inc.),
 the Gaussian 86(TM) system (copyright 1986, Carnegie Mellon
 University), and the Gaussian 82(TM) system (copyright 1983,
 Carnegie Mellon University). Gaussian is a federally registered
 trademark of Gaussian, Inc.
  
 This software contains proprietary and confidential information,
 including trade secrets, belonging to Gaussian, Inc.
  
 This software is provided under written license and may be
 used, copied, transmitted, or stored only in accord with that
 written license.
  
 The following legend is applicable only to US Government
 contracts under FAR:
  
                    RESTRICTED RIGHTS LEGEND
  
 Use, reproduction and disclosure by the US Government is
 subject to restrictions as set forth in subparagraphs (a)
 and (c) of the Commercial Computer Software - Restricted
 Rights clause in FAR 52.227-19.
  
 Gaussian, Inc.
 340 Quinnipiac St., Bldg. 40, Wallingford CT 06492
  
  
 ---------------------------------------------------------------
 Warning -- This program may not be used in any manner that
 competes with the business of Gaussian, Inc. or will provide
 assistance to any competitor of Gaussian, Inc.  The licensee
 of this program is prohibited from giving any competitor of
 Gaussian, Inc. access to this program.  By using this program,
 the user acknowledges that Gaussian, Inc. is engaged in the
 business of creating and licensing software in the field of
 computational chemistry and represents and warrants to the
 licensee that it is not a competitor of Gaussian, Inc. and that
 it will not use this program in any manner prohibited above.
 ---------------------------------------------------------------
  

 Cite this work as:
 Gaussian 09, Revision D.01,
 M. J. Frisch, G. W. Trucks, H. B. Schlegel, G. E. Scuseria, 
 M. A. Robb, J. R. Cheeseman, G. Scalmani, V. Barone, B. Mennucci, 
 G. A. Petersson, H. Nakatsuji, M. Caricato, X. Li, H. P. Hratchian, 
 A. F. Izmaylov, J. Bloino, G. Zheng, J. L. Sonnenberg, M. Hada, 
 M. Ehara, K. Toyota, R. Fukuda, J. Hasegawa, M. Ishida, T. Nakajima, 
 Y. Honda, O. Kitao, H. Nakai, T. Vreven, J. A. Montgomery, Jr., 
 J. E. Peralta, F. Ogliaro, M. Bearpark, J. J. Heyd, E. Brothers, 
 K. N. Kudin, V. N. Staroverov, T. Keith, R. Kobayashi, J. Normand, 
 K. Raghavachari, A. Rendell, J. C. Burant, S. S. Iyengar, J. Tomasi, 
 M. Cossi, N. Rega, J. M. Millam, M. Klene, J. E. Knox, J. B. Cross, 
 V. Bakken, C. Adamo, J. Jaramillo, R. Gomperts, R. E. Stratmann, 
 O. Yazyev, A. J. Austin, R. Cammi, C. Pomelli, J. W. Ochterski, 
 R. L. Martin, K. Morokuma, V. G. Zakrzewski, G. A. Voth, 
 P. Salvador, J. J. Dannenberg, S. Dapprich, A. D. Daniels, 
 O. Farkas, J. B. Foresman, J. V. Ortiz, J. Cioslowski, 
 and D. J. Fox, Gaussian, Inc., Wallingford CT, 2013.
 
 ******************************************
 Gaussian 09:  IA32W-G09RevD.01 24-Apr-2013
                13-Feb-2022 
 ******************************************
 %chk=D:\mindmap\gaussian\calculate\opt_freq\C6H5COHCN\C6H5OHCN.chk
 -------------------------------------------
 # opt freq apfd/6-311+g(2d,p) int=ultrafine
 -------------------------------------------
 1/14=-1,18=20,19=15,26=4,38=1/1,3;
 2/9=110,12=2,17=6,18=5,40=1/2;
 3/5=4,6=6,7=112,11=2,16=1,25=1,30=1,71=1,74=-44,75=-5/1,2,3;
 4//1;
 5/5=2,38=5/2;
 6/7=2,8=2,9=2,10=2,28=1/1;
 7//1,2,3,16;
 1/14=-1,18=20,19=15,26=4/3(2);
 2/9=110/2;
 99//99;
 2/9=110/2;
 3/5=4,6=6,7=112,11=2,16=1,25=1,30=1,71=1,74=-44,75=-5/1,2,3;
 4/5=5,16=3,69=1/1;
 5/5=2,38=5/2;
 7//1,2,3,16;
 1/14=-1,18=20,19=15,26=4/3(-5);
 2/9=110/2;
 6/7=2,8=2,9=2,10=2,19=2,28=1/1;
 99/9=1/99;
 ------------
 opt freq(GC)
 ------------
 Symbolic Z-matrix:
 Charge =  0 Multiplicity = 1
 C                     0.4024    1.29539   0. 
 C                     1.76684   1.03011   0. 
 C                     2.21932  -0.28417   0. 
 C                     1.30736  -1.33317   0. 
 C                    -0.05709  -1.06789   0. 
 C                    -0.50957   0.24639   0. 
 H                     0.04906   2.3217    0. 
 H                     2.47898   1.84927   0. 
 H                     3.2848   -0.49133   0. 
 H                     1.66069  -2.35948   0. 
 H                    -0.76923  -1.88705   0. 
 O                    -2.95733  -0.54075   0. 
 H                    -3.85121  -0.19064   0. 
 C                    -2.02126   0.5403    0. 
 H                    -2.25982   1.11015   0.87365 
 C                    -2.36461   1.36045  -1.2574 
 N                    -2.62025   1.97109  -2.1936 
 

 GradGradGradGradGradGradGradGradGradGradGradGradGradGradGradGradGradGrad
 Berny optimization.
 Initialization pass.
                           ----------------------------
                           !    Initial Parameters    !
                           ! (Angstroms and Degrees)  !
 --------------------------                            --------------------------
 ! Name  Definition              Value          Derivative Info.                !
 --------------------------------------------------------------------------------
 ! R1    R(1,2)                  1.39           estimate D2E/DX2                !
 ! R2    R(1,6)                  1.39           estimate D2E/DX2                !
 ! R3    R(1,7)                  1.0854         estimate D2E/DX2                !
 ! R4    R(2,3)                  1.39           estimate D2E/DX2                !
 ! R5    R(2,8)                  1.0854         estimate D2E/DX2                !
 ! R6    R(3,4)                  1.39           estimate D2E/DX2                !
 ! R7    R(3,9)                  1.0854         estimate D2E/DX2                !
 ! R8    R(4,5)                  1.39           estimate D2E/DX2                !
 ! R9    R(4,10)                 1.0854         estimate D2E/DX2                !
 ! R10   R(5,6)                  1.39           estimate D2E/DX2                !
 ! R11   R(5,11)                 1.0854         estimate D2E/DX2                !
 ! R12   R(6,14)                 1.54           estimate D2E/DX2                !
 ! R13   R(12,13)                0.96           estimate D2E/DX2                !
 ! R14   R(12,14)                1.43           estimate D2E/DX2                !
 ! R15   R(14,15)                1.07           estimate D2E/DX2                !
 ! R16   R(14,16)                1.54           estimate D2E/DX2                !
 ! R17   R(16,17)                1.1466         estimate D2E/DX2                !
 ! A1    A(2,1,6)              120.0            estimate D2E/DX2                !
 ! A2    A(2,1,7)              120.0            estimate D2E/DX2                !
 ! A3    A(6,1,7)              120.0            estimate D2E/DX2                !
 ! A4    A(1,2,3)              120.0            estimate D2E/DX2                !
 ! A5    A(1,2,8)              120.0            estimate D2E/DX2                !
 ! A6    A(3,2,8)              120.0            estimate D2E/DX2                !
 ! A7    A(2,3,4)              120.0            estimate D2E/DX2                !
 ! A8    A(2,3,9)              120.0            estimate D2E/DX2                !
 ! A9    A(4,3,9)              120.0            estimate D2E/DX2                !
 ! A10   A(3,4,5)              120.0            estimate D2E/DX2                !
 ! A11   A(3,4,10)             120.0            estimate D2E/DX2                !
 ! A12   A(5,4,10)             120.0            estimate D2E/DX2                !
 ! A13   A(4,5,6)              120.0            estimate D2E/DX2                !
 ! A14   A(4,5,11)             120.0            estimate D2E/DX2                !
 ! A15   A(6,5,11)             120.0            estimate D2E/DX2                !
 ! A16   A(1,6,5)              120.0            estimate D2E/DX2                !
 ! A17   A(1,6,14)             120.0            estimate D2E/DX2                !
 ! A18   A(5,6,14)             120.0            estimate D2E/DX2                !
 ! A19   A(13,12,14)           109.5            estimate D2E/DX2                !
 ! A20   A(6,14,12)            119.8865         estimate D2E/DX2                !
 ! A21   A(6,14,15)            108.693          estimate D2E/DX2                !
 ! A22   A(6,14,16)            108.6931         estimate D2E/DX2                !
 ! A23   A(12,14,15)           104.8721         estimate D2E/DX2                !
 ! A24   A(12,14,16)           104.872          estimate D2E/DX2                !
 ! A25   A(15,14,16)           109.4712         estimate D2E/DX2                !
 ! A26   L(14,16,17,7,-1)      180.0            estimate D2E/DX2                !
 ! A27   L(14,16,17,7,-2)      180.0            estimate D2E/DX2                !
 ! D1    D(6,1,2,3)              0.0            estimate D2E/DX2                !
 ! D2    D(6,1,2,8)            180.0            estimate D2E/DX2                !
 ! D3    D(7,1,2,3)            180.0            estimate D2E/DX2                !
 ! D4    D(7,1,2,8)              0.0            estimate D2E/DX2                !
 ! D5    D(2,1,6,5)              0.0            estimate D2E/DX2                !
 ! D6    D(2,1,6,14)           180.0            estimate D2E/DX2                !
 ! D7    D(7,1,6,5)            180.0            estimate D2E/DX2                !
 ! D8    D(7,1,6,14)             0.0            estimate D2E/DX2                !
 ! D9    D(1,2,3,4)              0.0            estimate D2E/DX2                !
 ! D10   D(1,2,3,9)            180.0            estimate D2E/DX2                !
 ! D11   D(8,2,3,4)            180.0            estimate D2E/DX2                !
 ! D12   D(8,2,3,9)              0.0            estimate D2E/DX2                !
 ! D13   D(2,3,4,5)              0.0            estimate D2E/DX2                !
 ! D14   D(2,3,4,10)           180.0            estimate D2E/DX2                !
 ! D15   D(9,3,4,5)            180.0            estimate D2E/DX2                !
 ! D16   D(9,3,4,10)             0.0            estimate D2E/DX2                !
 ! D17   D(3,4,5,6)              0.0            estimate D2E/DX2                !
 ! D18   D(3,4,5,11)           180.0            estimate D2E/DX2                !
 ! D19   D(10,4,5,6)           180.0            estimate D2E/DX2                !
 ! D20   D(10,4,5,11)            0.0            estimate D2E/DX2                !
 ! D21   D(4,5,6,1)              0.0            estimate D2E/DX2                !
 ! D22   D(4,5,6,14)           180.0            estimate D2E/DX2                !
 ! D23   D(11,5,6,1)           180.0            estimate D2E/DX2                !
 ! D24   D(11,5,6,14)            0.0            estimate D2E/DX2                !
 ! D25   D(1,6,14,12)          180.0            estimate D2E/DX2                !
 ! D26   D(1,6,14,15)          -59.538          estimate D2E/DX2                !
 ! D27   D(1,6,14,16)           59.538          estimate D2E/DX2                !
 ! D28   D(5,6,14,12)            0.0            estimate D2E/DX2                !
 ! D29   D(5,6,14,15)          120.462          estimate D2E/DX2                !
 ! D30   D(5,6,14,16)         -120.462          estimate D2E/DX2                !
 ! D31   D(13,12,14,6)         180.0            estimate D2E/DX2                !
 ! D32   D(13,12,14,15)         57.6501         estimate D2E/DX2                !
 ! D33   D(13,12,14,16)        -57.6501         estimate D2E/DX2                !
 --------------------------------------------------------------------------------
 Trust Radius=3.00D-01 FncErr=1.00D-07 GrdErr=1.00D-06
 Number of steps in this run=     87 maximum allowed number of steps=    102.
 GradGradGradGradGradGradGradGradGradGradGradGradGradGradGradGradGradGrad

                          Input orientation:                          
 ---------------------------------------------------------------------
 Center     Atomic      Atomic             Coordinates (Angstroms)
 Number     Number       Type             X           Y           Z
 ---------------------------------------------------------------------
      1          6           0        0.402395    1.295395    0.000000
      2          6           0        1.766839    1.030112    0.000000
      3          6           0        2.219320   -0.284172    0.000000
      4          6           0        1.307357   -1.333174    0.000000
      5          6           0       -0.057087   -1.067892    0.000000
      6          6           0       -0.509568    0.246393    0.000000
      7          1           0        0.049058    2.321704    0.000000
      8          1           0        2.478981    1.849266    0.000000
      9          1           0        3.284798   -0.491328    0.000000
     10          1           0        1.660694   -2.359484    0.000000
     11          1           0       -0.769229   -1.887045    0.000000
     12          8           0       -2.957333   -0.540746    0.000000
     13          1           0       -3.851214   -0.190636    0.000000
     14          6           0       -2.021261    0.540304    0.000000
     15          1           0       -2.259824    1.110147    0.873651
     16          6           0       -2.364613    1.360452   -1.257405
     17          7           0       -2.620254    1.971090   -2.193600
 ---------------------------------------------------------------------
                    Distance matrix (angstroms):
                    1          2          3          4          5
     1  C    0.000000
     2  C    1.389994   0.000000
     3  C    2.407540   1.389994   0.000000
     4  C    2.779987   2.407540   1.389994   0.000000
     5  C    2.407540   2.779987   2.407540   1.389994   0.000000
     6  C    1.389994   2.407540   2.779987   2.407540   1.389994
     7  H    1.085430   2.149181   3.391257   3.865417   3.391257
     8  H    2.149181   1.085430   2.149181   3.391257   3.865417
     9  H    3.391257   2.149181   1.085430   2.149181   3.391257
    10  H    3.865417   3.391257   2.149181   1.085430   2.149181
    11  H    3.391257   3.865417   3.391257   2.149181   1.085430
    12  O    3.828732   4.978494   5.183008   4.337686   2.947763
    13  H    4.505716   5.749152   6.071255   5.283583   3.894223
    14  C    2.538557   3.819636   4.319987   3.819636   2.538557
    15  H    2.808023   4.121127   4.771805   4.411106   3.218566
    16  C    3.040006   4.331176   5.029741   4.724410   3.578071
    17  N    3.795372   4.994387   5.772310   5.581771   4.540607
                    6          7          8          9         10
     6  C    0.000000
     7  H    2.149181   0.000000
     8  H    3.391257   2.475423   0.000000
     9  H    3.865417   4.287559   2.475423   0.000000
    10  H    3.391257   4.950847   4.287559   2.475423   0.000000
    11  H    2.149181   4.287559   4.950847   4.287559   2.475423
    12  O    2.571214   4.151146   5.938490   6.242327   4.963263
    13  H    3.370103   4.639394   6.650757   7.142345   5.923261
    14  C    1.540000   2.731228   4.686743   5.405417   4.686743
    15  H    2.138395   2.749922   4.875021   5.837022   5.307736
    16  C    2.502676   2.886327   5.027962   6.076677   5.623351
    17  N    3.498779   3.472757   5.552379   6.763507   6.472423
                   11         12         13         14         15
    11  H    0.000000
    12  O    2.569109   0.000000
    13  H    3.518016   0.960000   0.000000
    14  C    2.731228   1.430000   1.970533   0.000000
    15  H    3.459523   1.993799   2.233344   1.070000   0.000000
    16  C    3.830477   2.355194   2.489362   1.540000   2.148263
    17  N    4.808677   3.351838   3.316655   2.686600   3.206113
                   16         17
    16  C    0.000000
    17  N    1.146600   0.000000
 Stoichiometry    C8H7NO
 Framework group  C1[X(C8H7NO)]
 Deg. of freedom    45
 Full point group                 C1      NOp   1
 Largest Abelian subgroup         C1      NOp   1
 Largest concise Abelian subgroup C1      NOp   1
                         Standard orientation:                         
 ---------------------------------------------------------------------
 Center     Atomic      Atomic             Coordinates (Angstroms)
 Number     Number       Type             X           Y           Z
 ---------------------------------------------------------------------
      1          6           0       -0.707154   -1.078488    0.552065
      2          6           0       -2.064601   -1.245734    0.304176
      3          6           0       -2.808990   -0.197361   -0.223918
      4          6           0       -2.195931    1.018256   -0.504123
      5          6           0       -0.838484    1.185502   -0.256235
      6          6           0       -0.094096    0.137129    0.271859
      7          1           0       -0.125870   -1.897150    0.964448
      8          1           0       -2.543332   -2.194995    0.522986
      9          1           0       -3.869004   -0.327961   -0.417491
     10          1           0       -2.777216    1.836918   -0.916506
     11          1           0       -0.359754    2.134763   -0.475044
     12          8           0        2.038075    1.574063    0.257317
     13          1           0        2.969676    1.524922    0.483824
     14          6           0        1.409845    0.322424    0.546500
     15          1           0        1.590970    0.158434    1.588230
     16          6           0        2.193864   -0.713678   -0.280185
     17          7           0        2.777602   -1.485103   -0.895689
 ---------------------------------------------------------------------
 Rotational constants (GHZ):      2.6413678      0.9236117      0.7489968
 Standard basis: 6-311+G(2d,p) (5D, 7F)
 There are   332 symmetry adapted cartesian basis functions of A   symmetry.
 There are   312 symmetry adapted basis functions of A   symmetry.
   312 basis functions,   476 primitive gaussians,   332 cartesian basis functions
    35 alpha electrons       35 beta electrons
       nuclear repulsion energy       459.5451385350 Hartrees.
 NAtoms=   17 NActive=   17 NUniq=   17 SFac= 1.00D+00 NAtFMM=   60 NAOKFM=F Big=F
 Integral buffers will be    262144 words long.
 Raffenetti 2 integral format.
 Two-electron integral symmetry is turned on.
 R6APFD:  NTU= -4 IXU= 1 FactS= 1.050
 Nuclear repulsion after empirical dispersion term =      459.5353566816 Hartrees.
 One-electron integrals computed using PRISM.
 NBasis=   312 RedAO= T EigKep=  2.36D-06  NBF=   312
 NBsUse=   312 1.00D-06 EigRej= -1.00D+00 NBFU=   312
 ExpMin= 4.38D-02 ExpMax= 8.59D+03 ExpMxC= 1.30D+03 IAcc=3 IRadAn=         5 AccDes= 0.00D+00
 Harris functional with IExCor= 3731 and IRadAn=       5 diagonalized for initial guess.
 HarFok:  IExCor= 3731 AccDes= 0.00D+00 IRadAn=         5 IDoV= 1 UseB2=F ITyADJ=14
 ICtDFT=  3500011 ScaDFX=  1.000000  1.000000  1.000000  1.000000
 FoFCou: FMM=F IPFlag=           0 FMFlag=      100000 FMFlg1=           0
         NFxFlg=           0 DoJE=T BraDBF=F KetDBF=T FulRan=T
         wScrn=  0.000000 ICntrl=     500 IOpCl=  0 I1Cent=   200000004 NGrid=           0
         NMat0=    1 NMatS0=      1 NMatT0=    0 NMatD0=    1 NMtDS0=    0 NMtDT0=    0
 Petite list used in FoFCou.
 Requested convergence on RMS density matrix=1.00D-08 within 128 cycles.
 Requested convergence on MAX density matrix=1.00D-06.
 Requested convergence on             energy=1.00D-06.
 No special actions if energy rises.
 SCF Done:  E(RAPFD) =  -438.760895020     A.U. after   14 cycles
            NFock= 14  Conv=0.39D-08     -V/T= 2.0043

 **********************************************************************

            Population analysis using the SCF density.

 **********************************************************************

 Orbital symmetries:
       Occupied  (A) (A) (A) (A) (A) (A) (A) (A) (A) (A) (A) (A)
                 (A) (A) (A) (A) (A) (A) (A) (A) (A) (A) (A) (A)
                 (A) (A) (A) (A) (A) (A) (A) (A) (A) (A) (A)
       Virtual   (A) (A) (A) (A) (A) (A) (A) (A) (A) (A) (A) (A)
                 (A) (A) (A) (A) (A) (A) (A) (A) (A) (A) (A) (A)
                 (A) (A) (A) (A) (A) (A) (A) (A) (A) (A) (A) (A)
                 (A) (A) (A) (A) (A) (A) (A) (A) (A) (A) (A) (A)
                 (A) (A) (A) (A) (A) (A) (A) (A) (A) (A) (A) (A)
                 (A) (A) (A) (A) (A) (A) (A) (A) (A) (A) (A) (A)
                 (A) (A) (A) (A) (A) (A) (A) (A) (A) (A) (A) (A)
                 (A) (A) (A) (A) (A) (A) (A) (A) (A) (A) (A) (A)
                 (A) (A) (A) (A) (A) (A) (A) (A) (A) (A) (A) (A)
                 (A) (A) (A) (A) (A) (A) (A) (A) (A) (A) (A) (A)
                 (A) (A) (A) (A) (A) (A) (A) (A) (A) (A) (A) (A)
                 (A) (A) (A) (A) (A) (A) (A) (A) (A) (A) (A) (A)
                 (A) (A) (A) (A) (A) (A) (A) (A) (A) (A) (A) (A)
                 (A) (A) (A) (A) (A) (A) (A) (A) (A) (A) (A) (A)
                 (A) (A) (A) (A) (A) (A) (A) (A) (A) (A) (A) (A)
                 (A) (A) (A) (A) (A) (A) (A) (A) (A) (A) (A) (A)
                 (A) (A) (A) (A) (A) (A) (A) (A) (A) (A) (A) (A)
                 (A) (A) (A) (A) (A) (A) (A) (A) (A) (A) (A) (A)
                 (A) (A) (A) (A) (A) (A) (A) (A) (A) (A) (A) (A)
                 (A) (A) (A) (A) (A) (A) (A) (A) (A) (A) (A) (A)
                 (A) (A) (A) (A) (A) (A) (A) (A) (A) (A) (A) (A)
                 (A) (A) (A) (A) (A) (A) (A) (A) (A) (A) (A) (A)
                 (A) (A) (A) (A) (A) (A) (A) (A) (A) (A) (A) (A)
                 (A)
 The electronic state is 1-A.
 Alpha  occ. eigenvalues --  -19.20701 -14.35564 -10.32325 -10.24199 -10.23936
 Alpha  occ. eigenvalues --  -10.22093 -10.21743 -10.21635 -10.21540 -10.21463
 Alpha  occ. eigenvalues --   -1.08564  -0.93632  -0.89913  -0.81561  -0.78155
 Alpha  occ. eigenvalues --   -0.73746  -0.64255  -0.62471  -0.57921  -0.55196
 Alpha  occ. eigenvalues --   -0.54609  -0.49151  -0.47774  -0.46126  -0.44685
 Alpha  occ. eigenvalues --   -0.41031  -0.39919  -0.38637  -0.37808  -0.36979
 Alpha  occ. eigenvalues --   -0.36326  -0.34770  -0.32848  -0.28040  -0.27683
 Alpha virt. eigenvalues --   -0.03269  -0.02646  -0.01538   0.00894   0.01967
 Alpha virt. eigenvalues --    0.02536   0.03109   0.04301   0.04495   0.05147
 Alpha virt. eigenvalues --    0.05752   0.07008   0.07447   0.07824   0.08733
 Alpha virt. eigenvalues --    0.09853   0.10435   0.10995   0.11937   0.12578
 Alpha virt. eigenvalues --    0.12988   0.13938   0.14743   0.14942   0.15437
 Alpha virt. eigenvalues --    0.15687   0.16252   0.16534   0.17601   0.18058
 Alpha virt. eigenvalues --    0.18663   0.19010   0.19681   0.19851   0.20544
 Alpha virt. eigenvalues --    0.20958   0.22078   0.22560   0.22996   0.23301
 Alpha virt. eigenvalues --    0.24132   0.24252   0.24662   0.25417   0.25994
 Alpha virt. eigenvalues --    0.26526   0.26671   0.27354   0.28481   0.29400
 Alpha virt. eigenvalues --    0.30600   0.31582   0.31944   0.33054   0.33432
 Alpha virt. eigenvalues --    0.35051   0.37950   0.39323   0.42853   0.43416
 Alpha virt. eigenvalues --    0.44980   0.48832   0.49997   0.50659   0.51116
 Alpha virt. eigenvalues --    0.51811   0.52317   0.52826   0.53872   0.54530
 Alpha virt. eigenvalues --    0.55064   0.56732   0.58043   0.59114   0.59941
 Alpha virt. eigenvalues --    0.61221   0.62037   0.62362   0.63276   0.64435
 Alpha virt. eigenvalues --    0.64663   0.65167   0.67184   0.68427   0.69691
 Alpha virt. eigenvalues --    0.70227   0.70561   0.72016   0.72460   0.73363
 Alpha virt. eigenvalues --    0.73755   0.75695   0.76471   0.77799   0.78178
 Alpha virt. eigenvalues --    0.79699   0.81282   0.81730   0.82571   0.83305
 Alpha virt. eigenvalues --    0.83729   0.84752   0.86516   0.87043   0.89167
 Alpha virt. eigenvalues --    0.89440   0.91468   0.92457   0.96241   0.98486
 Alpha virt. eigenvalues --    1.00548   1.02954   1.04920   1.06438   1.07276
 Alpha virt. eigenvalues --    1.10047   1.11988   1.14041   1.15985   1.17116
 Alpha virt. eigenvalues --    1.17630   1.18821   1.20452   1.23337   1.24394
 Alpha virt. eigenvalues --    1.27954   1.28486   1.29344   1.30684   1.31116
 Alpha virt. eigenvalues --    1.32927   1.33780   1.34549   1.36529   1.37617
 Alpha virt. eigenvalues --    1.39580   1.41646   1.43750   1.46543   1.48523
 Alpha virt. eigenvalues --    1.49605   1.52411   1.54344   1.56352   1.58961
 Alpha virt. eigenvalues --    1.60297   1.63407   1.63566   1.64613   1.67674
 Alpha virt. eigenvalues --    1.74505   1.76667   1.77499   1.79283   1.81807
 Alpha virt. eigenvalues --    1.84863   1.88620   1.93449   1.96606   1.99857
 Alpha virt. eigenvalues --    2.05266   2.06891   2.12615   2.12973   2.15717
 Alpha virt. eigenvalues --    2.20173   2.23687   2.25558   2.32667   2.34042
 Alpha virt. eigenvalues --    2.35261   2.38285   2.43895   2.53199   2.58597
 Alpha virt. eigenvalues --    2.62470   2.65712   2.66651   2.67350   2.72768
 Alpha virt. eigenvalues --    2.74707   2.76609   2.77246   2.81584   2.85322
 Alpha virt. eigenvalues --    2.85559   2.86114   2.88552   2.91274   2.92717
 Alpha virt. eigenvalues --    2.97372   2.98629   3.00770   3.05089   3.07917
 Alpha virt. eigenvalues --    3.10767   3.12366   3.15128   3.16206   3.18236
 Alpha virt. eigenvalues --    3.21336   3.22500   3.27621   3.28794   3.29968
 Alpha virt. eigenvalues --    3.30423   3.32480   3.33676   3.36272   3.38213
 Alpha virt. eigenvalues --    3.41539   3.41942   3.42412   3.44181   3.47247
 Alpha virt. eigenvalues --    3.49592   3.50769   3.53062   3.54565   3.56551
 Alpha virt. eigenvalues --    3.58449   3.59245   3.60697   3.63168   3.65139
 Alpha virt. eigenvalues --    3.66518   3.68423   3.73329   3.75095   3.76406
 Alpha virt. eigenvalues --    3.77676   3.79559   3.82391   3.85696   3.87982
 Alpha virt. eigenvalues --    3.89419   3.91518   3.93859   3.95466   3.97354
 Alpha virt. eigenvalues --    3.98737   4.06523   4.10239   4.10449   4.13212
 Alpha virt. eigenvalues --    4.20421   4.25189   4.53695   4.55970   4.65215
 Alpha virt. eigenvalues --    4.66904   4.82556   4.82726   4.84039   4.87345
 Alpha virt. eigenvalues --    5.09269   5.16661   5.18866   5.31573   5.46255
 Alpha virt. eigenvalues --    5.70353   5.83108   6.89349   7.00500   7.04940
 Alpha virt. eigenvalues --    7.18621   7.34891  23.71088  23.95550  24.06557
 Alpha virt. eigenvalues --   24.11295  24.15132  24.17085  24.19741  24.26583
 Alpha virt. eigenvalues --   35.93621  50.05395
          Condensed to atoms (all electrons):
               1          2          3          4          5          6
     1  C   10.842826   0.379862   0.304776   0.008300  -4.078659  -1.524293
     2  C    0.379862   6.113353   0.300513   0.517792  -1.193802   0.150884
     3  C    0.304776   0.300513   5.295464   0.228881   0.371289  -0.829941
     4  C    0.008300   0.517792   0.228881   6.492127  -1.459961   0.250143
     5  C   -4.078659  -1.193802   0.371289  -1.459961  12.904589  -1.302626
     6  C   -1.524293   0.150884  -0.829941   0.250143  -1.302626  10.153413
     7  H    0.413346  -0.049659   0.018878  -0.007026   0.020043  -0.064833
     8  H   -0.061957   0.431068  -0.071082   0.021351  -0.007888   0.029272
     9  H    0.035296  -0.081747   0.445983  -0.068152   0.016142  -0.006059
    10  H   -0.011411   0.025791  -0.069432   0.442605  -0.075218   0.026157
    11  H    0.012875  -0.011932   0.028318  -0.081434   0.486690  -0.092454
    12  O    0.234521   0.000546   0.001516   0.030505  -0.298782   0.046222
    13  H   -0.027063   0.000148   0.000375  -0.013013   0.030837   0.010614
    14  C   -0.153430  -0.481509   0.042244  -0.141202   0.730811  -1.463186
    15  H   -0.077513  -0.009086  -0.000729  -0.000678   0.047738  -0.065980
    16  C    0.309653   0.133013   0.016404   0.024685  -0.131440   0.071787
    17  N   -0.001716  -0.009323   0.002727   0.000395   0.004743  -0.041439
               7          8          9         10         11         12
     1  C    0.413346  -0.061957   0.035296  -0.011411   0.012875   0.234521
     2  C   -0.049659   0.431068  -0.081747   0.025791  -0.011932   0.000546
     3  C    0.018878  -0.071082   0.445983  -0.069432   0.028318   0.001516
     4  C   -0.007026   0.021351  -0.068152   0.442605  -0.081434   0.030505
     5  C    0.020043  -0.007888   0.016142  -0.075218   0.486690  -0.298782
     6  C   -0.064833   0.029272  -0.006059   0.026157  -0.092454   0.046222
     7  H    0.543066  -0.006581  -0.000298   0.000076  -0.000232   0.000382
     8  H   -0.006581   0.557312  -0.006442  -0.000286   0.000067   0.000011
     9  H   -0.000298  -0.006442   0.561466  -0.006561  -0.000275  -0.000009
    10  H    0.000076  -0.000286  -0.006561   0.558825  -0.006156   0.000025
    11  H   -0.000232   0.000067  -0.000275  -0.006156   0.520014   0.005506
    12  O    0.000382   0.000011  -0.000009   0.000025   0.005506   7.987712
    13  H   -0.000094   0.000000   0.000000  -0.000001  -0.000616   0.243254
    14  C    0.014761   0.003610   0.001563   0.003576   0.009160   0.257505
    15  H    0.001071  -0.000006  -0.000002   0.000020   0.000103  -0.046124
    16  C   -0.002310  -0.001005  -0.000464   0.000044  -0.004872  -0.089429
    17  N    0.000003   0.000080   0.000006   0.000001   0.000273  -0.001808
              13         14         15         16         17
     1  C   -0.027063  -0.153430  -0.077513   0.309653  -0.001716
     2  C    0.000148  -0.481509  -0.009086   0.133013  -0.009323
     3  C    0.000375   0.042244  -0.000729   0.016404   0.002727
     4  C   -0.013013  -0.141202  -0.000678   0.024685   0.000395
     5  C    0.030837   0.730811   0.047738  -0.131440   0.004743
     6  C    0.010614  -1.463186  -0.065980   0.071787  -0.041439
     7  H   -0.000094   0.014761   0.001071  -0.002310   0.000003
     8  H    0.000000   0.003610  -0.000006  -0.001005   0.000080
     9  H    0.000000   0.001563  -0.000002  -0.000464   0.000006
    10  H   -0.000001   0.003576   0.000020   0.000044   0.000001
    11  H   -0.000616   0.009160   0.000103  -0.004872   0.000273
    12  O    0.243254   0.257505  -0.046124  -0.089429  -0.001808
    13  H    0.473326   0.011947  -0.007436   0.008217  -0.003349
    14  C    0.011947   6.981963   0.503040  -0.712992   0.178831
    15  H   -0.007436   0.503040   0.549741  -0.043783  -0.003350
    16  C    0.008217  -0.712992  -0.043783   6.013072   0.403059
    17  N   -0.003349   0.178831  -0.003350   0.403059   6.768144
 Mulliken charges:
               1
     1  C   -0.605415
     2  C   -0.215912
     3  C   -0.086183
     4  C   -0.245318
     5  C   -0.064506
     6  C    0.652319
     7  H    0.119409
     8  H    0.112476
     9  H    0.109552
    10  H    0.111945
    11  H    0.134967
    12  O   -0.371552
    13  H    0.272853
    14  C    0.213307
    15  H    0.152975
    16  C    0.006362
    17  N   -0.297277
 Sum of Mulliken charges =   0.00000
 Mulliken charges with hydrogens summed into heavy atoms:
               1
     1  C   -0.486006
     2  C   -0.103436
     3  C    0.023369
     4  C   -0.133373
     5  C    0.070461
     6  C    0.652319
    12  O   -0.098700
    14  C    0.366282
    16  C    0.006362
    17  N   -0.297277
 Electronic spatial extent (au):  <R**2>=           1506.3680
 Charge=              0.0000 electrons
 Dipole moment (field-independent basis, Debye):
    X=             -1.7869    Y=              1.3495    Z=              2.4478  Tot=              3.3175
 Quadrupole moment (field-independent basis, Debye-Ang):
   XX=            -54.6192   YY=            -59.5436   ZZ=            -60.3158
   XY=              7.8250   XZ=              8.7874   YZ=             -4.4589
 Traceless Quadrupole moment (field-independent basis, Debye-Ang):
   XX=              3.5403   YY=             -1.3840   ZZ=             -2.1563
   XY=              7.8250   XZ=              8.7874   YZ=             -4.4589
 Octapole moment (field-independent basis, Debye-Ang**2):
  XXX=            -11.4321  YYY=              8.7254  ZZZ=              6.2982  XYY=            -15.5842
  XXY=             29.8099  XXZ=             15.9740  XZZ=              5.4930  YZZ=              5.3512
  YYZ=              5.1234  XYZ=             -0.7504
 Hexadecapole moment (field-independent basis, Debye-Ang**3):
 XXXX=          -1314.5945 YYYY=           -478.9256 ZZZZ=           -158.1623 XXXY=            131.4036
 XXXZ=             87.9047 YYYX=             38.1022 YYYZ=            -22.1972 ZZZX=             15.7954
 ZZZY=             -1.2713 XXYY=           -321.3143 XXZZ=           -277.7754 YYZZ=           -110.9273
 XXYZ=            -21.7273 YYXZ=             18.7123 ZZXY=             11.6079
 N-N= 4.595353566816D+02 E-N=-1.941295588451D+03  KE= 4.369010106139D+02
 R6APFD:  NTU= -4 IXU= 1 FactS= 1.050
 Calling FoFJK, ICntrl=      2127 FMM=F ISym2X=0 I1Cent= 0 IOpClX= 0 NMat=1 NMatS=1 NMatT=0.
 ***** Axes restored to original set *****
 -------------------------------------------------------------------
 Center     Atomic                   Forces (Hartrees/Bohr)
 Number     Number              X              Y              Z
 -------------------------------------------------------------------
      1        6          -0.001139340    0.001544156    0.001343747
      2        6          -0.002582731   -0.000878777    0.000299411
      3        6          -0.000119091   -0.001419347   -0.000063767
      4        6           0.001049588    0.002494916    0.000361762
      5        6          -0.001007883   -0.001298398    0.000037385
      6        6          -0.017820471   -0.016823772   -0.001294774
      7        1          -0.000125740    0.000621642   -0.000727252
      8        1          -0.000924562    0.000107201   -0.000057929
      9        1          -0.000188618    0.000162438   -0.000103634
     10        1          -0.000544745    0.000208666   -0.000033065
     11        1          -0.000843687    0.001563234   -0.000232733
     12        8           0.028211705   -0.013374498    0.000909896
     13        1           0.001461453    0.004244909    0.000022458
     14        6          -0.018640132    0.011672130   -0.036756206
     15        1           0.001723758    0.018577522    0.010608226
     16        6           0.015098628   -0.011525212    0.033352597
     17        7          -0.003608131    0.004123189   -0.007666122
 -------------------------------------------------------------------
 Cartesian Forces:  Max     0.036756206 RMS     0.010371539

 GradGradGradGradGradGradGradGradGradGradGradGradGradGradGradGradGradGrad
 Berny optimization.
 FormGI is forming the generalized inverse of G from B-inverse, IUseBI=4.
 Internal  Forces:  Max     0.043840505 RMS     0.007980860
 Search for a local minimum.
 Step number   1 out of a maximum of   87
 All quantities printed in internal units (Hartrees-Bohrs-Radians)
 Mixed Optimization -- RFO/linear search
 Second derivative matrix not updated -- first step.
 ITU=  0
     Eigenvalues ---    0.00237   0.01295   0.01427   0.02221   0.02221
     Eigenvalues ---    0.02221   0.02221   0.02221   0.02221   0.02221
     Eigenvalues ---    0.02221   0.05044   0.05044   0.06053   0.07366
     Eigenvalues ---    0.13315   0.16000   0.16000   0.16000   0.16000
     Eigenvalues ---    0.16000   0.16000   0.21078   0.22000   0.22000
     Eigenvalues ---    0.23486   0.23555   0.25000   0.28519   0.28519
     Eigenvalues ---    0.35346   0.35346   0.35346   0.35346   0.35346
     Eigenvalues ---    0.37230   0.40989   0.42798   0.42991   0.47320
     Eigenvalues ---    0.47320   0.47320   0.47320   0.55473   1.36980
 RFO step:  Lambda=-1.82855796D-02 EMin= 2.36824113D-03
 Linear search not attempted -- first point.
 Iteration  1 RMS(Cart)=  0.07910115 RMS(Int)=  0.00379644
 Iteration  2 RMS(Cart)=  0.00479930 RMS(Int)=  0.00109144
 Iteration  3 RMS(Cart)=  0.00000535 RMS(Int)=  0.00109144
 Iteration  4 RMS(Cart)=  0.00000003 RMS(Int)=  0.00109144
 Variable       Old X    -DE/DX   Delta X   Delta X   Delta X     New X
                                 (Linear)    (Quad)   (Total)
    R1        2.62671  -0.00284   0.00000  -0.00587  -0.00586   2.62084
    R2        2.62671  -0.00214   0.00000  -0.00451  -0.00450   2.62220
    R3        2.05117   0.00063   0.00000   0.00169   0.00169   2.05286
    R4        2.62671   0.00052   0.00000   0.00112   0.00112   2.62782
    R5        2.05117  -0.00053   0.00000  -0.00141  -0.00141   2.04975
    R6        2.62671  -0.00109   0.00000  -0.00206  -0.00207   2.62464
    R7        2.05117  -0.00022   0.00000  -0.00058  -0.00058   2.05058
    R8        2.62671  -0.00054   0.00000  -0.00101  -0.00101   2.62570
    R9        2.05117  -0.00037   0.00000  -0.00101  -0.00101   2.05016
   R10        2.62671  -0.00268   0.00000  -0.00551  -0.00551   2.62120
   R11        2.05117  -0.00063   0.00000  -0.00168  -0.00168   2.04948
   R12        2.91018  -0.02118   0.00000  -0.06980  -0.06980   2.84037
   R13        1.81414   0.00019   0.00000   0.00033   0.00033   1.81446
   R14        2.70231  -0.01252   0.00000  -0.02924  -0.02924   2.67306
   R15        2.02201   0.01817   0.00000   0.04652   0.04652   2.06853
   R16        2.91018  -0.02748   0.00000  -0.09054  -0.09054   2.81964
   R17        2.16676   0.00926   0.00000   0.00667   0.00667   2.17343
    A1        2.09440  -0.00191   0.00000  -0.00828  -0.00827   2.08613
    A2        2.09440   0.00087   0.00000   0.00366   0.00364   2.09804
    A3        2.09440   0.00104   0.00000   0.00462   0.00460   2.09900
    A4        2.09440   0.00070   0.00000   0.00317   0.00317   2.09757
    A5        2.09440  -0.00114   0.00000  -0.00601  -0.00601   2.08839
    A6        2.09440   0.00044   0.00000   0.00283   0.00283   2.09723
    A7        2.09440  -0.00030   0.00000  -0.00055  -0.00056   2.09384
    A8        2.09440   0.00002   0.00000  -0.00044  -0.00043   2.09396
    A9        2.09440   0.00028   0.00000   0.00099   0.00099   2.09539
   A10        2.09440  -0.00003   0.00000   0.00064   0.00063   2.09503
   A11        2.09440   0.00047   0.00000   0.00225   0.00225   2.09665
   A12        2.09440  -0.00045   0.00000  -0.00289  -0.00289   2.09151
   A13        2.09440  -0.00173   0.00000  -0.00696  -0.00695   2.08745
   A14        2.09440   0.00257   0.00000   0.01304   0.01304   2.10743
   A15        2.09440  -0.00084   0.00000  -0.00608  -0.00609   2.08831
   A16        2.09440   0.00326   0.00000   0.01197   0.01197   2.10637
   A17        2.09440  -0.00417   0.00000  -0.01546  -0.01549   2.07891
   A18        2.09440   0.00091   0.00000   0.00349   0.00346   2.09786
   A19        1.91114  -0.00814   0.00000  -0.04564  -0.04564   1.86550
   A20        2.09241  -0.04384   0.00000  -0.17043  -0.16905   1.92336
   A21        1.89705   0.00516   0.00000   0.00703   0.00981   1.90686
   A22        1.89705   0.00523   0.00000   0.01176   0.01340   1.91046
   A23        1.83036   0.02061   0.00000   0.10920   0.10764   1.93800
   A24        1.83036   0.02165   0.00000   0.08500   0.08263   1.91299
   A25        1.91063  -0.00718   0.00000  -0.03593  -0.03930   1.87134
   A26        3.14159   0.00374   0.00000   0.05439   0.05439   3.19598
   A27        3.14159   0.00054   0.00000   0.00786   0.00786   3.14945
    D1        0.00000  -0.00002   0.00000  -0.00095  -0.00095  -0.00095
    D2        3.14159  -0.00013   0.00000  -0.00344  -0.00344   3.13815
    D3        3.14159   0.00026   0.00000   0.00608   0.00609  -3.13550
    D4        0.00000   0.00015   0.00000   0.00359   0.00360   0.00360
    D5        0.00000   0.00002   0.00000   0.00141   0.00143   0.00143
    D6        3.14159  -0.00034   0.00000  -0.00957  -0.00954   3.13205
    D7        3.14159  -0.00026   0.00000  -0.00563  -0.00562   3.13597
    D8        0.00000  -0.00062   0.00000  -0.01661  -0.01659  -0.01659
    D9        0.00000  -0.00001   0.00000  -0.00056  -0.00057  -0.00057
   D10        3.14159  -0.00007   0.00000  -0.00173  -0.00173   3.13986
   D11        3.14159   0.00009   0.00000   0.00193   0.00194  -3.13966
   D12        0.00000   0.00003   0.00000   0.00076   0.00077   0.00077
   D13        0.00000   0.00006   0.00000   0.00162   0.00162   0.00162
   D14        3.14159  -0.00003   0.00000  -0.00040  -0.00039   3.14120
   D15        3.14159   0.00012   0.00000   0.00279   0.00279  -3.13880
   D16        0.00000   0.00003   0.00000   0.00077   0.00078   0.00078
   D17        0.00000  -0.00006   0.00000  -0.00116  -0.00115  -0.00115
   D18        3.14159  -0.00005   0.00000  -0.00106  -0.00104   3.14055
   D19        3.14159   0.00002   0.00000   0.00085   0.00086  -3.14074
   D20        0.00000   0.00003   0.00000   0.00095   0.00096   0.00096
   D21        0.00000   0.00003   0.00000  -0.00035  -0.00038  -0.00038
   D22        3.14159   0.00038   0.00000   0.01063   0.01071  -3.13088
   D23        3.14159   0.00002   0.00000  -0.00045  -0.00048   3.14111
   D24        0.00000   0.00037   0.00000   0.01053   0.01060   0.01060
   D25        3.14159   0.00079   0.00000   0.00166   0.00170  -3.13989
   D26       -1.03913   0.00138   0.00000   0.03233   0.03305  -1.00609
   D27        1.03913  -0.00127   0.00000  -0.00006  -0.00092   1.03821
   D28        0.00000   0.00043   0.00000  -0.00932  -0.00922  -0.00922
   D29        2.10246   0.00102   0.00000   0.02134   0.02213   2.12459
   D30       -2.10246  -0.00163   0.00000  -0.01104  -0.01184  -2.11429
   D31        3.14159  -0.00034   0.00000   0.00433   0.00352  -3.13807
   D32        1.00618   0.00500   0.00000   0.01788   0.02360   1.02979
   D33       -1.00618  -0.00470   0.00000  -0.02343  -0.02834  -1.03452
         Item               Value     Threshold  Converged?
 Maximum Force            0.043841     0.000450     NO 
 RMS     Force            0.007981     0.000300     NO 
 Maximum Displacement     0.372173     0.001800     NO 
 RMS     Displacement     0.079793     0.001200     NO 
 Predicted change in Energy=-9.892086D-03
 GradGradGradGradGradGradGradGradGradGradGradGradGradGradGradGradGradGrad

                          Input orientation:                          
 ---------------------------------------------------------------------
 Center     Atomic      Atomic             Coordinates (Angstroms)
 Number     Number       Type             X           Y           Z
 ---------------------------------------------------------------------
      1          6           0        0.384692    1.308520   -0.011039
      2          6           0        1.742016    1.023846   -0.001147
      3          6           0        2.179452   -0.296117    0.007246
      4          6           0        1.255585   -1.333187    0.006408
      5          6           0       -0.105163   -1.052404   -0.004758
      6          6           0       -0.532429    0.267201   -0.013642
      7          1           0        0.042512    2.339472   -0.023319
      8          1           0        2.460780    1.836195   -0.002336
      9          1           0        3.242246   -0.515030    0.013347
     10          1           0        1.593964   -2.363945    0.012577
     11          1           0       -0.836556   -1.853206   -0.006503
     12          8           0       -2.760388   -0.607209   -0.012745
     13          1           0       -3.685306   -0.349420   -0.014773
     14          6           0       -2.001219    0.586333   -0.011851
     15          1           0       -2.236046    1.200781    0.863077
     16          6           0       -2.336015    1.393563   -1.221238
     17          7           0       -2.649069    1.984991   -2.156658
 ---------------------------------------------------------------------
                    Distance matrix (angstroms):
                    1          2          3          4          5
     1  C    0.000000
     2  C    1.386890   0.000000
     3  C    2.407562   1.390584   0.000000
     4  C    2.781614   2.406715   1.388901   0.000000
     5  C    2.411215   2.779010   2.406570   1.389460   0.000000
     6  C    1.387610   2.397033   2.769848   2.399716   1.387080
     7  H    1.086325   2.149344   3.393196   3.867927   3.395140
     8  H    2.142115   1.084682   2.150813   3.390805   3.863686
     9  H    3.389917   2.149195   1.085122   2.148546   3.390316
    10  H    3.866509   3.391052   2.149125   1.084896   2.146502
    11  H    3.389392   3.863481   3.394263   2.155839   1.084538
    12  O    3.682601   4.788749   4.949666   4.081109   2.692301
    13  H    4.394731   5.598381   5.865041   5.037921   3.648522
    14  C    2.492815   3.768732   4.272832   3.780432   2.506100
    15  H    2.764770   4.074698   4.740229   4.398450   3.220348
    16  C    2.978936   4.272663   4.975302   4.673529   3.526936
    17  N    3.776903   4.985143   5.761992   5.561968   4.508647
                    6          7          8          9         10
     6  C    0.000000
     7  H    2.150572   0.000000
     8  H    3.379522   2.470171   0.000000
     9  H    3.854968   4.288102   2.477740   0.000000
    10  H    3.383070   4.952820   4.288680   2.476958   0.000000
    11  H    2.142118   4.283876   4.948143   4.292753   2.483676
    12  O    2.393407   4.066853   5.764627   6.003398   4.695439
    13  H    3.212609   4.596394   6.523146   6.929588   5.650642
    14  C    1.503062   2.692669   4.633754   5.357943   4.650815
    15  H    2.131319   2.697062   4.817973   5.803251   5.300906
    16  C    2.445384   2.826154   4.968992   6.023613   5.575473
    17  N    3.467489   3.452738   5.547413   6.757707   6.451523
                   11         12         13         14         15
    11  H    0.000000
    12  O    2.292090   0.000000
    13  H    3.221306   0.960173   0.000000
    14  C    2.703297   1.414525   1.926600   0.000000
    15  H    3.470098   2.076253   2.296540   1.094618   0.000000
    16  C    3.776965   2.375634   2.512794   1.492088   2.095598
    17  N    4.758164   3.365747   3.333307   2.641240   3.147121
                   16         17
    16  C    0.000000
    17  N    1.150130   0.000000
 Stoichiometry    C8H7NO
 Framework group  C1[X(C8H7NO)]
 Deg. of freedom    45
 Full point group                 C1      NOp   1
 Largest Abelian subgroup         C1      NOp   1
 Largest concise Abelian subgroup C1      NOp   1
                         Standard orientation:                         
 ---------------------------------------------------------------------
 Center     Atomic      Atomic             Coordinates (Angstroms)
 Number     Number       Type             X           Y           Z
 ---------------------------------------------------------------------
      1          6           0       -0.656305   -1.113137    0.517501
      2          6           0       -2.009354   -1.282166    0.264219
      3          6           0       -2.764702   -0.226043   -0.233553
      4          6           0       -2.163861    1.002168   -0.477553
      5          6           0       -0.808321    1.175421   -0.226374
      6          6           0       -0.062528    0.116264    0.269581
      7          1           0       -0.064604   -1.939520    0.901015
      8          1           0       -2.474975   -2.243222    0.454225
      9          1           0       -3.822756   -0.362474   -0.432040
     10          1           0       -2.750603    1.827797   -0.866230
     11          1           0       -0.327185    2.129187   -0.413620
     12          8           0        1.807133    1.610242    0.241406
     13          1           0        2.744638    1.669179    0.440260
     14          6           0        1.401782    0.292805    0.559103
     15          1           0        1.591129    0.066817    1.613269
     16          6           0        2.189608   -0.682304   -0.250107
     17          7           0        2.841338   -1.389677   -0.880719
 ---------------------------------------------------------------------
 Rotational constants (GHZ):      2.6763823      0.9634600      0.7733463
 Standard basis: 6-311+G(2d,p) (5D, 7F)
 There are   332 symmetry adapted cartesian basis functions of A   symmetry.
 There are   312 symmetry adapted basis functions of A   symmetry.
   312 basis functions,   476 primitive gaussians,   332 cartesian basis functions
    35 alpha electrons       35 beta electrons
       nuclear repulsion energy       464.8792865066 Hartrees.
 NAtoms=   17 NActive=   17 NUniq=   17 SFac= 1.00D+00 NAtFMM=   60 NAOKFM=F Big=F
 Integral buffers will be    262144 words long.
 Raffenetti 2 integral format.
 Two-electron integral symmetry is turned on.
 R6APFD:  NTU= -4 IXU= 1 FactS= 1.050
 Nuclear repulsion after empirical dispersion term =      464.8698034477 Hartrees.
 One-electron integrals computed using PRISM.
 NBasis=   312 RedAO= T EigKep=  2.28D-06  NBF=   312
 NBsUse=   312 1.00D-06 EigRej= -1.00D+00 NBFU=   312
 Initial guess from the checkpoint file:  "D:\mindmap\gaussian\calculate\opt_freq\C6H5COHCN\C6H5OHCN.chk"
 B after Tr=     0.000000    0.000000    0.000000
         Rot=    0.999884   -0.008329    0.002890   -0.012422 Ang=  -1.75 deg.
 ExpMin= 4.38D-02 ExpMax= 8.59D+03 ExpMxC= 1.30D+03 IAcc=2 IRadAn=         4 AccDes= 0.00D+00
 Harris functional with IExCor= 3731 and IRadAn=       4 diagonalized for initial guess.
 HarFok:  IExCor= 3731 AccDes= 0.00D+00 IRadAn=         4 IDoV= 1 UseB2=F ITyADJ=14
 ICtDFT=  3500011 ScaDFX=  1.000000  1.000000  1.000000  1.000000
 FoFCou: FMM=F IPFlag=           0 FMFlag=      100000 FMFlg1=           0
         NFxFlg=           0 DoJE=T BraDBF=F KetDBF=T FulRan=T
         wScrn=  0.000000 ICntrl=     500 IOpCl=  0 I1Cent=   200000004 NGrid=           0
         NMat0=    1 NMatS0=      1 NMatT0=    0 NMatD0=    1 NMtDS0=    0 NMtDT0=    0
 Petite list used in FoFCou.
 Requested convergence on RMS density matrix=1.00D-08 within 128 cycles.
 Requested convergence on MAX density matrix=1.00D-06.
 Requested convergence on             energy=1.00D-06.
 No special actions if energy rises.
 SCF Done:  E(RAPFD) =  -438.769932263     A.U. after   12 cycles
            NFock= 12  Conv=0.47D-08     -V/T= 2.0039
 R6APFD:  NTU= -4 IXU= 1 FactS= 1.050
 Calling FoFJK, ICntrl=      2127 FMM=F ISym2X=0 I1Cent= 0 IOpClX= 0 NMat=1 NMatS=1 NMatT=0.
 ***** Axes restored to original set *****
 -------------------------------------------------------------------
 Center     Atomic                   Forces (Hartrees/Bohr)
 Number     Number              X              Y              Z
 -------------------------------------------------------------------
      1        6           0.003950279   -0.000951697    0.000700476
      2        6           0.000231276    0.000998634   -0.000019375
      3        6           0.000164512   -0.000673285    0.000034195
      4        6           0.000855332    0.001687052   -0.000083951
      5        6           0.001095739   -0.001497558    0.000095689
      6        6           0.000797360   -0.002889611    0.001517304
      7        1          -0.000013983   -0.000011197   -0.000289599
      8        1           0.000379136    0.000011285    0.000015302
      9        1           0.000021309    0.000117278    0.000009765
     10        1          -0.000064015   -0.000101150   -0.000015244
     11        1           0.001034020    0.001036593   -0.000066103
     12        8           0.001325924    0.007101660    0.002215686
     13        1          -0.002997152   -0.002577346   -0.000202423
     14        6          -0.005296267   -0.000923015   -0.012119157
     15        1          -0.000931508    0.001388088    0.002400550
     16        6          -0.001033470   -0.003949320    0.005872192
     17        7           0.000481507    0.001233588   -0.000065307
 -------------------------------------------------------------------
 Cartesian Forces:  Max     0.012119157 RMS     0.002616954

 GradGradGradGradGradGradGradGradGradGradGradGradGradGradGradGradGradGrad
 Berny optimization.
 Using GEDIIS/GDIIS optimizer.
 FormGI is forming the generalized inverse of G from B-inverse, IUseBI=4.
 Internal  Forces:  Max     0.008748343 RMS     0.001859747
 Search for a local minimum.
 Step number   2 out of a maximum of   87
 All quantities printed in internal units (Hartrees-Bohrs-Radians)
 Mixed Optimization -- RFO/linear search
 Update second derivatives using D2CorX and points    1    2
 DE= -9.04D-03 DEPred=-9.89D-03 R= 9.14D-01
 TightC=F SS=  1.41D+00  RLast= 2.74D-01 DXNew= 5.0454D-01 8.2087D-01
 Trust test= 9.14D-01 RLast= 2.74D-01 DXMaxT set to 5.05D-01
 ITU=  1  0
 Use linear search instead of GDIIS.
     Eigenvalues ---    0.00237   0.01295   0.01437   0.02221   0.02221
     Eigenvalues ---    0.02221   0.02221   0.02221   0.02221   0.02221
     Eigenvalues ---    0.02222   0.05039   0.05117   0.07011   0.08119
     Eigenvalues ---    0.12529   0.15978   0.16000   0.16000   0.16000
     Eigenvalues ---    0.16000   0.16234   0.19976   0.21698   0.22001
     Eigenvalues ---    0.22603   0.24470   0.25304   0.27379   0.32590
     Eigenvalues ---    0.35343   0.35346   0.35346   0.35346   0.35405
     Eigenvalues ---    0.36760   0.40721   0.42814   0.43262   0.47302
     Eigenvalues ---    0.47320   0.47320   0.47485   0.55523   1.36880
 RFO step:  Lambda=-1.15700397D-03 EMin= 2.36820017D-03
 Quartic linear search produced a step of -0.04471.
 Iteration  1 RMS(Cart)=  0.02373484 RMS(Int)=  0.00042682
 Iteration  2 RMS(Cart)=  0.00048699 RMS(Int)=  0.00007370
 Iteration  3 RMS(Cart)=  0.00000024 RMS(Int)=  0.00007370
 Variable       Old X    -DE/DX   Delta X   Delta X   Delta X     New X
                                 (Linear)    (Quad)   (Total)
    R1        2.62084   0.00007   0.00026  -0.00053  -0.00027   2.62057
    R2        2.62220   0.00348   0.00020   0.00670   0.00691   2.62911
    R3        2.05286  -0.00001  -0.00008   0.00016   0.00008   2.05294
    R4        2.62782  -0.00076  -0.00005  -0.00160  -0.00166   2.62616
    R5        2.04975   0.00026   0.00006   0.00054   0.00060   2.05035
    R6        2.62464  -0.00073   0.00009  -0.00191  -0.00183   2.62282
    R7        2.05058   0.00000   0.00003  -0.00007  -0.00005   2.05053
    R8        2.62570   0.00107   0.00005   0.00203   0.00208   2.62777
    R9        2.05016   0.00008   0.00005   0.00009   0.00013   2.05029
   R10        2.62120   0.00117   0.00025   0.00194   0.00219   2.62339
   R11        2.04948  -0.00146   0.00008  -0.00413  -0.00406   2.04542
   R12        2.84037   0.00875   0.00312   0.02097   0.02409   2.86447
   R13        1.81446   0.00220  -0.00001   0.00381   0.00379   1.81826
   R14        2.67306  -0.00292   0.00131  -0.01015  -0.00885   2.66422
   R15        2.06853   0.00290  -0.00208   0.01279   0.01071   2.07924
   R16        2.81964  -0.00605   0.00405  -0.03081  -0.02676   2.79288
   R17        2.17343   0.00056  -0.00030   0.00113   0.00083   2.17426
    A1        2.08613   0.00249   0.00037   0.00994   0.01031   2.09644
    A2        2.09804  -0.00123  -0.00016  -0.00496  -0.00514   2.09290
    A3        2.09900  -0.00126  -0.00021  -0.00502  -0.00523   2.09377
    A4        2.09757  -0.00048  -0.00014  -0.00241  -0.00255   2.09501
    A5        2.08839   0.00052   0.00027   0.00234   0.00261   2.09100
    A6        2.09723  -0.00004  -0.00013   0.00007  -0.00006   2.09717
    A7        2.09384  -0.00049   0.00003  -0.00336  -0.00335   2.09048
    A8        2.09396   0.00012   0.00002   0.00087   0.00089   2.09486
    A9        2.09539   0.00037  -0.00004   0.00249   0.00245   2.09784
   A10        2.09503   0.00147  -0.00003   0.00568   0.00565   2.10067
   A11        2.09665  -0.00064  -0.00010  -0.00196  -0.00206   2.09459
   A12        2.09151  -0.00083   0.00013  -0.00372  -0.00359   2.08792
   A13        2.08745   0.00059   0.00031   0.00185   0.00217   2.08962
   A14        2.10743  -0.00036  -0.00058  -0.00014  -0.00073   2.10671
   A15        2.08831  -0.00023   0.00027  -0.00171  -0.00145   2.08686
   A16        2.10637  -0.00358  -0.00054  -0.01170  -0.01223   2.09414
   A17        2.07891  -0.00007   0.00069  -0.00237  -0.00170   2.07721
   A18        2.09786   0.00365  -0.00015   0.01398   0.01381   2.11166
   A19        1.86550   0.00597   0.00204   0.02972   0.03176   1.89726
   A20        1.92336   0.00236   0.00756  -0.00553   0.00180   1.92516
   A21        1.90686  -0.00128  -0.00044  -0.01095  -0.01152   1.89534
   A22        1.91046   0.00213  -0.00060   0.01953   0.01871   1.92916
   A23        1.93800  -0.00181  -0.00481  -0.00460  -0.00938   1.92863
   A24        1.91299  -0.00033  -0.00369   0.01921   0.01541   1.92840
   A25        1.87134  -0.00112   0.00176  -0.01753  -0.01552   1.85582
   A26        3.19598  -0.00241  -0.00243  -0.03636  -0.03879   3.15719
   A27        3.14945   0.00094  -0.00035   0.01857   0.01822   3.16767
    D1       -0.00095   0.00000   0.00004  -0.00103  -0.00098  -0.00193
    D2        3.13815  -0.00002   0.00015  -0.00208  -0.00193   3.13622
    D3       -3.13550   0.00012  -0.00027   0.00557   0.00532  -3.13018
    D4        0.00360   0.00010  -0.00016   0.00452   0.00437   0.00797
    D5        0.00143   0.00001  -0.00006   0.00237   0.00229   0.00372
    D6        3.13205  -0.00007   0.00043  -0.00675  -0.00626   3.12578
    D7        3.13597  -0.00011   0.00025  -0.00423  -0.00401   3.13196
    D8       -0.01659  -0.00019   0.00074  -0.01336  -0.01257  -0.02916
    D9       -0.00057   0.00002   0.00003   0.00030   0.00031  -0.00025
   D10        3.13986  -0.00001   0.00008  -0.00047  -0.00040   3.13946
   D11       -3.13966   0.00004  -0.00009   0.00135   0.00126  -3.13840
   D12        0.00077   0.00001  -0.00003   0.00058   0.00055   0.00132
   D13        0.00162  -0.00004  -0.00007  -0.00089  -0.00096   0.00066
   D14        3.14120  -0.00002   0.00002  -0.00036  -0.00034   3.14087
   D15       -3.13880  -0.00002  -0.00012  -0.00012  -0.00025  -3.13905
   D16        0.00078   0.00000  -0.00003   0.00041   0.00038   0.00115
   D17       -0.00115   0.00005   0.00005   0.00221   0.00227   0.00112
   D18        3.14055   0.00001   0.00005   0.00030   0.00036   3.14091
   D19       -3.14074   0.00003  -0.00004   0.00168   0.00164  -3.13909
   D20        0.00096  -0.00001  -0.00004  -0.00023  -0.00026   0.00070
   D21       -0.00038  -0.00003   0.00002  -0.00296  -0.00292  -0.00330
   D22       -3.13088   0.00007  -0.00048   0.00637   0.00591  -3.12498
   D23        3.14111   0.00001   0.00002  -0.00107  -0.00104   3.14007
   D24        0.01060   0.00011  -0.00047   0.00825   0.00779   0.01840
   D25       -3.13989   0.00151  -0.00008   0.05477   0.05477  -3.08512
   D26       -1.00609  -0.00006  -0.00148   0.03829   0.03685  -0.96924
   D27        1.03821  -0.00093   0.00004   0.02205   0.02206   1.06027
   D28       -0.00922   0.00138   0.00041   0.04553   0.04596   0.03675
   D29        2.12459  -0.00019  -0.00099   0.02905   0.02804   2.15263
   D30       -2.11429  -0.00105   0.00053   0.01281   0.01325  -2.10105
   D31       -3.13807  -0.00160  -0.00016  -0.01018  -0.01035   3.13476
   D32        1.02979  -0.00038  -0.00106   0.01039   0.00904   1.03882
   D33       -1.03452   0.00232   0.00127   0.02276   0.02434  -1.01018
         Item               Value     Threshold  Converged?
 Maximum Force            0.008748     0.000450     NO 
 RMS     Force            0.001860     0.000300     NO 
 Maximum Displacement     0.073563     0.001800     NO 
 RMS     Displacement     0.023780     0.001200     NO 
 Predicted change in Energy=-6.089087D-04
 GradGradGradGradGradGradGradGradGradGradGradGradGradGradGradGradGradGrad

                          Input orientation:                          
 ---------------------------------------------------------------------
 Center     Atomic      Atomic             Coordinates (Angstroms)
 Number     Number       Type             X           Y           Z
 ---------------------------------------------------------------------
      1          6           0        0.391200    1.298342   -0.012064
      2          6           0        1.749722    1.020912    0.010725
      3          6           0        2.190511   -0.297017    0.017784
      4          6           0        1.266821   -1.332834    0.002256
      5          6           0       -0.096251   -1.058710   -0.021095
      6          6           0       -0.533363    0.258885   -0.030235
      7          1           0        0.048966    2.329269   -0.028288
      8          1           0        2.466419    1.835458    0.019775
      9          1           0        3.253587   -0.513935    0.033616
     10          1           0        1.606738   -2.363167    0.007013
     11          1           0       -0.821447   -1.862139   -0.033919
     12          8           0       -2.778930   -0.591511    0.021492
     13          1           0       -3.711507   -0.354692    0.024155
     14          6           0       -2.012456    0.590476   -0.034025
     15          1           0       -2.230383    1.232163    0.832794
     16          6           0       -2.363841    1.379031   -1.233600
     17          7           0       -2.666728    1.999853   -2.153737
 ---------------------------------------------------------------------
                    Distance matrix (angstroms):
                    1          2          3          4          5
     1  C    0.000000
     2  C    1.386747   0.000000
     3  C    2.404908   1.389706   0.000000
     4  C    2.773085   2.402787   1.387934   0.000000
     5  C    2.406945   2.780910   2.410595   1.390558   0.000000
     6  C    1.391265   2.407248   2.780436   2.403183   1.388240
     7  H    1.086369   2.146134   3.389059   3.859417   3.391097
     8  H    2.143838   1.084998   2.150251   3.387833   3.865897
     9  H    3.388169   2.148928   1.085096   2.149144   3.394287
    10  H    3.858049   3.387100   2.147063   1.084967   2.145360
    11  H    3.385207   3.863274   3.394727   2.154607   1.082391
    12  O    3.690853   4.807152   4.978161   4.113153   2.723390
    13  H    4.423352   5.631828   5.902303   5.073557   3.683445
    14  C    2.505817   3.786986   4.295959   3.801854   2.528206
    15  H    2.755152   4.069602   4.748362   4.415816   3.245265
    16  C    3.014782   4.312539   5.011708   4.697154   3.543263
    17  N    3.798658   5.014803   5.795161   5.588194   4.528832
                    6          7          8          9         10
     6  C    0.000000
     7  H    2.150721   0.000000
     8  H    3.389215   2.467842   0.000000
     9  H    3.865530   4.284535   2.477795   0.000000
    10  H    3.384757   4.944376   4.285751   2.476384   0.000000
    11  H    2.140502   4.280835   4.948249   4.292798   2.479675
    12  O    2.401753   4.065763   5.779608   6.033028   4.730017
    13  H    3.237288   4.620341   6.554659   6.966921   5.684892
    14  C    1.515811   2.696830   4.649000   5.381032   4.671644
    15  H    2.138215   2.672178   4.804677   5.810462   5.322763
    16  C    2.460378   2.859609   5.011057   6.061737   5.595414
    17  N    3.477280   3.464252   5.576771   6.793657   6.478217
                   11         12         13         14         15
    11  H    0.000000
    12  O    2.334375   0.000000
    13  H    3.260095   0.962180   0.000000
    14  C    2.726504   1.409843   1.945123   0.000000
    15  H    3.508703   2.070000   2.316405   1.100286   0.000000
    16  C    3.784626   2.372886   2.530602   1.477927   2.075900
    17  N    4.776366   3.385171   3.373228   2.628231   3.114340
                   16         17
    16  C    0.000000
    17  N    1.150571   0.000000
 Stoichiometry    C8H7NO
 Framework group  C1[X(C8H7NO)]
 Deg. of freedom    45
 Full point group                 C1      NOp   1
 Largest Abelian subgroup         C1      NOp   1
 Largest concise Abelian subgroup C1      NOp   1
                         Standard orientation:                         
 ---------------------------------------------------------------------
 Center     Atomic      Atomic             Coordinates (Angstroms)
 Number     Number       Type             X           Y           Z
 ---------------------------------------------------------------------
      1          6           0       -0.667374   -1.105686    0.515404
      2          6           0       -2.022872   -1.277951    0.278720
      3          6           0       -2.780832   -0.226047   -0.221558
      4          6           0       -2.176517    0.995838   -0.482638
      5          6           0       -0.817472    1.172358   -0.247074
      6          6           0       -0.062608    0.118983    0.250713
      7          1           0       -0.074569   -1.932470    0.896466
      8          1           0       -2.488303   -2.236687    0.482240
      9          1           0       -3.841062   -0.361595   -0.408570
     10          1           0       -2.764503    1.819453   -0.873896
     11          1           0       -0.340344    2.122641   -0.449263
     12          8           0        1.819357    1.610988    0.274069
     13          1           0        2.757909    1.692772    0.469572
     14          6           0        1.416292    0.286052    0.538155
     15          1           0        1.599884    0.030276    1.592433
     16          6           0        2.211307   -0.666361   -0.265044
     17          7           0        2.856656   -1.400773   -0.871656
 ---------------------------------------------------------------------
 Rotational constants (GHZ):      2.6834945      0.9514525      0.7659874
 Standard basis: 6-311+G(2d,p) (5D, 7F)
 There are   332 symmetry adapted cartesian basis functions of A   symmetry.
 There are   312 symmetry adapted basis functions of A   symmetry.
   312 basis functions,   476 primitive gaussians,   332 cartesian basis functions
    35 alpha electrons       35 beta electrons
       nuclear repulsion energy       463.8893351179 Hartrees.
 NAtoms=   17 NActive=   17 NUniq=   17 SFac= 1.00D+00 NAtFMM=   60 NAOKFM=F Big=F
 Integral buffers will be    262144 words long.
 Raffenetti 2 integral format.
 Two-electron integral symmetry is turned on.
 R6APFD:  NTU= -4 IXU= 1 FactS= 1.050
 Nuclear repulsion after empirical dispersion term =      463.8798886236 Hartrees.
 One-electron integrals computed using PRISM.
 NBasis=   312 RedAO= T EigKep=  2.27D-06  NBF=   312
 NBsUse=   312 1.00D-06 EigRej= -1.00D+00 NBFU=   312
 Initial guess from the checkpoint file:  "D:\mindmap\gaussian\calculate\opt_freq\C6H5COHCN\C6H5OHCN.chk"
 B after Tr=     0.000000    0.000000    0.000000
         Rot=    1.000000    0.000477    0.000032    0.000083 Ang=   0.06 deg.
 ExpMin= 4.38D-02 ExpMax= 8.59D+03 ExpMxC= 1.30D+03 IAcc=2 IRadAn=         4 AccDes= 0.00D+00
 Harris functional with IExCor= 3731 and IRadAn=       4 diagonalized for initial guess.
 HarFok:  IExCor= 3731 AccDes= 0.00D+00 IRadAn=         4 IDoV= 1 UseB2=F ITyADJ=14
 ICtDFT=  3500011 ScaDFX=  1.000000  1.000000  1.000000  1.000000
 FoFCou: FMM=F IPFlag=           0 FMFlag=      100000 FMFlg1=           0
         NFxFlg=           0 DoJE=T BraDBF=F KetDBF=T FulRan=T
         wScrn=  0.000000 ICntrl=     500 IOpCl=  0 I1Cent=   200000004 NGrid=           0
         NMat0=    1 NMatS0=      1 NMatT0=    0 NMatD0=    1 NMtDS0=    0 NMtDT0=    0
 Petite list used in FoFCou.
 Requested convergence on RMS density matrix=1.00D-08 within 128 cycles.
 Requested convergence on MAX density matrix=1.00D-06.
 Requested convergence on             energy=1.00D-06.
 No special actions if energy rises.
 SCF Done:  E(RAPFD) =  -438.770551821     A.U. after   11 cycles
            NFock= 11  Conv=0.75D-08     -V/T= 2.0040
 R6APFD:  NTU= -4 IXU= 1 FactS= 1.050
 Calling FoFJK, ICntrl=      2127 FMM=F ISym2X=0 I1Cent= 0 IOpClX= 0 NMat=1 NMatS=1 NMatT=0.
 ***** Axes restored to original set *****
 -------------------------------------------------------------------
 Center     Atomic                   Forces (Hartrees/Bohr)
 Number     Number              X              Y              Z
 -------------------------------------------------------------------
      1        6           0.000499294   -0.000158833   -0.000133939
      2        6          -0.000440308    0.000746307   -0.000153494
      3        6          -0.000040466   -0.000600863    0.000009551
      4        6           0.000088475    0.000326967   -0.000007998
      5        6          -0.000125172    0.000635927   -0.000345767
      6        6           0.000758783   -0.000050419    0.001022136
      7        1          -0.000090941    0.000143374    0.000033361
      8        1          -0.000093109    0.000054274    0.000060946
      9        1          -0.000041821   -0.000093435    0.000045289
     10        1          -0.000141718   -0.000152130    0.000005234
     11        1          -0.000169906   -0.000335600    0.000047746
     12        8          -0.000043237    0.001241551    0.000784824
     13        1           0.000392108   -0.000354807   -0.000278829
     14        6          -0.001543987   -0.001361554   -0.001159642
     15        1           0.000711984   -0.000272654    0.000384912
     16        6           0.000364351    0.000403731   -0.000841093
     17        7          -0.000084330   -0.000171834    0.000526763
 -------------------------------------------------------------------
 Cartesian Forces:  Max     0.001543987 RMS     0.000525764

 GradGradGradGradGradGradGradGradGradGradGradGradGradGradGradGradGradGrad
 Berny optimization.
 Using GEDIIS/GDIIS optimizer.
 FormGI is forming the generalized inverse of G from B-inverse, IUseBI=4.
 Internal  Forces:  Max     0.000912870 RMS     0.000272781
 Search for a local minimum.
 Step number   3 out of a maximum of   87
 All quantities printed in internal units (Hartrees-Bohrs-Radians)
 Mixed Optimization -- En-DIIS/RFO-DIIS
 Update second derivatives using D2CorX and points    1    2    3
 DE= -6.20D-04 DEPred=-6.09D-04 R= 1.02D+00
 TightC=F SS=  1.41D+00  RLast= 1.23D-01 DXNew= 8.4853D-01 3.6938D-01
 Trust test= 1.02D+00 RLast= 1.23D-01 DXMaxT set to 5.05D-01
 ITU=  1  1  0
 Use linear search instead of GDIIS.
     Eigenvalues ---    0.00235   0.01286   0.01438   0.02218   0.02221
     Eigenvalues ---    0.02221   0.02221   0.02221   0.02221   0.02221
     Eigenvalues ---    0.02226   0.04927   0.05228   0.06946   0.07586
     Eigenvalues ---    0.12392   0.15860   0.15999   0.16000   0.16000
     Eigenvalues ---    0.16007   0.16235   0.20258   0.21783   0.22003
     Eigenvalues ---    0.23153   0.24502   0.25319   0.27577   0.32613
     Eigenvalues ---    0.35338   0.35346   0.35346   0.35347   0.35595
     Eigenvalues ---    0.36680   0.40425   0.42786   0.43790   0.47210
     Eigenvalues ---    0.47320   0.47322   0.47711   0.55790   1.36995
 RFO step:  Lambda=-5.31261196D-05 EMin= 2.34915714D-03
 Quartic linear search produced a step of  0.03874.
 Iteration  1 RMS(Cart)=  0.01283787 RMS(Int)=  0.00008728
 Iteration  2 RMS(Cart)=  0.00010291 RMS(Int)=  0.00000516
 Iteration  3 RMS(Cart)=  0.00000001 RMS(Int)=  0.00000516
 Variable       Old X    -DE/DX   Delta X   Delta X   Delta X     New X
                                 (Linear)    (Quad)   (Total)
    R1        2.62057  -0.00047  -0.00001  -0.00103  -0.00104   2.61953
    R2        2.62911   0.00006   0.00027   0.00008   0.00035   2.62945
    R3        2.05294   0.00016   0.00000   0.00049   0.00049   2.05343
    R4        2.62616   0.00065  -0.00006   0.00151   0.00144   2.62761
    R5        2.05035  -0.00002   0.00002  -0.00007  -0.00004   2.05031
    R6        2.62282  -0.00013  -0.00007  -0.00026  -0.00034   2.62248
    R7        2.05053  -0.00002   0.00000  -0.00007  -0.00007   2.05047
    R8        2.62777  -0.00024   0.00008  -0.00056  -0.00048   2.62729
    R9        2.05029   0.00010   0.00001   0.00029   0.00029   2.05058
   R10        2.62339  -0.00058   0.00008  -0.00137  -0.00129   2.62211
   R11        2.04542   0.00036  -0.00016   0.00105   0.00090   2.04632
   R12        2.86447   0.00009   0.00093  -0.00002   0.00091   2.86538
   R13        1.81826  -0.00047   0.00015  -0.00087  -0.00073   1.81753
   R14        2.66422  -0.00091  -0.00034  -0.00245  -0.00279   2.66143
   R15        2.07924   0.00000   0.00041   0.00023   0.00065   2.07988
   R16        2.79288   0.00031  -0.00104   0.00069  -0.00034   2.79253
   R17        2.17426  -0.00049   0.00003  -0.00034  -0.00031   2.17395
    A1        2.09644  -0.00005   0.00040  -0.00023   0.00017   2.09661
    A2        2.09290   0.00006  -0.00020   0.00039   0.00019   2.09309
    A3        2.09377  -0.00002  -0.00020  -0.00014  -0.00034   2.09342
    A4        2.09501  -0.00022  -0.00010  -0.00078  -0.00088   2.09413
    A5        2.09100   0.00000   0.00010  -0.00033  -0.00022   2.09077
    A6        2.09717   0.00022   0.00000   0.00112   0.00111   2.09828
    A7        2.09048   0.00001  -0.00013   0.00028   0.00015   2.09063
    A8        2.09486   0.00010   0.00003   0.00052   0.00055   2.09541
    A9        2.09784  -0.00011   0.00010  -0.00080  -0.00070   2.09714
   A10        2.10067   0.00003   0.00022   0.00015   0.00037   2.10104
   A11        2.09459   0.00017  -0.00008   0.00115   0.00107   2.09566
   A12        2.08792  -0.00020  -0.00014  -0.00130  -0.00143   2.08649
   A13        2.08962  -0.00009   0.00008  -0.00066  -0.00057   2.08904
   A14        2.10671  -0.00006  -0.00003  -0.00028  -0.00031   2.10640
   A15        2.08686   0.00015  -0.00006   0.00094   0.00088   2.08775
   A16        2.09414   0.00032  -0.00047   0.00125   0.00077   2.09491
   A17        2.07721   0.00004  -0.00007   0.00021   0.00013   2.07734
   A18        2.11166  -0.00035   0.00053  -0.00132  -0.00080   2.11087
   A19        1.89726   0.00043   0.00123   0.00254   0.00377   1.90103
   A20        1.92516   0.00041   0.00007   0.00128   0.00133   1.92649
   A21        1.89534  -0.00091  -0.00045  -0.00876  -0.00922   1.88612
   A22        1.92916  -0.00018   0.00072   0.00075   0.00145   1.93061
   A23        1.92863  -0.00002  -0.00036  -0.00101  -0.00139   1.92724
   A24        1.92840   0.00033   0.00060   0.00479   0.00536   1.93376
   A25        1.85582   0.00033  -0.00060   0.00274   0.00214   1.85795
   A26        3.15719   0.00022  -0.00150   0.00487   0.00336   3.16056
   A27        3.16767   0.00050   0.00071   0.01037   0.01107   3.17874
    D1       -0.00193   0.00001  -0.00004   0.00085   0.00082  -0.00112
    D2        3.13622   0.00006  -0.00007   0.00316   0.00309   3.13931
    D3       -3.13018  -0.00003   0.00021  -0.00099  -0.00079  -3.13097
    D4        0.00797   0.00002   0.00017   0.00132   0.00149   0.00946
    D5        0.00372  -0.00006   0.00009  -0.00428  -0.00420  -0.00048
    D6        3.12578   0.00004  -0.00024   0.00363   0.00339   3.12917
    D7        3.13196  -0.00002  -0.00016  -0.00243  -0.00259   3.12937
    D8       -0.02916   0.00008  -0.00049   0.00548   0.00499  -0.02417
    D9       -0.00025   0.00004   0.00001   0.00201   0.00202   0.00177
   D10        3.13946   0.00004  -0.00002   0.00192   0.00190   3.14136
   D11       -3.13840  -0.00002   0.00005  -0.00031  -0.00026  -3.13865
   D12        0.00132  -0.00001   0.00002  -0.00040  -0.00038   0.00094
   D13        0.00066  -0.00003  -0.00004  -0.00145  -0.00149  -0.00084
   D14        3.14087  -0.00001  -0.00001  -0.00096  -0.00097   3.13990
   D15       -3.13905  -0.00003  -0.00001  -0.00136  -0.00137  -3.14043
   D16        0.00115  -0.00002   0.00001  -0.00087  -0.00085   0.00030
   D17        0.00112  -0.00003   0.00009  -0.00197  -0.00188  -0.00076
   D18        3.14091   0.00002   0.00001   0.00056   0.00057   3.14149
   D19       -3.13909  -0.00005   0.00006  -0.00246  -0.00240  -3.14149
   D20        0.00070   0.00000  -0.00001   0.00006   0.00005   0.00075
   D21       -0.00330   0.00007  -0.00011   0.00482   0.00471   0.00141
   D22       -3.12498  -0.00004   0.00023  -0.00326  -0.00303  -3.12801
   D23        3.14007   0.00002  -0.00004   0.00233   0.00229  -3.14083
   D24        0.01840  -0.00009   0.00030  -0.00576  -0.00545   0.01294
   D25       -3.08512   0.00030   0.00212   0.02257   0.02469  -3.06043
   D26       -0.96924  -0.00004   0.00143   0.01654   0.01797  -0.95127
   D27        1.06027  -0.00028   0.00085   0.01514   0.01599   1.07626
   D28        0.03675   0.00042   0.00178   0.03058   0.03236   0.06911
   D29        2.15263   0.00007   0.00109   0.02455   0.02565   2.17827
   D30       -2.10105  -0.00016   0.00051   0.02316   0.02366  -2.07738
   D31        3.13476  -0.00022  -0.00040   0.00788   0.00747  -3.14095
   D32        1.03882   0.00066   0.00035   0.01863   0.01898   1.05780
   D33       -1.01018   0.00006   0.00094   0.01293   0.01389  -0.99629
         Item               Value     Threshold  Converged?
 Maximum Force            0.000913     0.000450     NO 
 RMS     Force            0.000273     0.000300     YES
 Maximum Displacement     0.044656     0.001800     NO 
 RMS     Displacement     0.012859     0.001200     NO 
 Predicted change in Energy=-2.748563D-05
 GradGradGradGradGradGradGradGradGradGradGradGradGradGradGradGradGradGrad

                          Input orientation:                          
 ---------------------------------------------------------------------
 Center     Atomic      Atomic             Coordinates (Angstroms)
 Number     Number       Type             X           Y           Z
 ---------------------------------------------------------------------
      1          6           0        0.392941    1.299549   -0.004679
      2          6           0        1.750822    1.021768    0.018525
      3          6           0        2.190352   -0.297405    0.019180
      4          6           0        1.265834   -1.332065   -0.005576
      5          6           0       -0.096772   -1.057022   -0.030016
      6          6           0       -0.532172    0.260455   -0.028684
      7          1           0        0.050697    2.330822   -0.015175
      8          1           0        2.467471    1.836209    0.035036
      9          1           0        3.252973   -0.516203    0.037117
     10          1           0        1.603701   -2.363246   -0.006772
     11          1           0       -0.822486   -1.860489   -0.049487
     12          8           0       -2.779261   -0.585185    0.045123
     13          1           0       -3.712008   -0.350717    0.037501
     14          6           0       -2.011594    0.592690   -0.037297
     15          1           0       -2.219390    1.247499    0.822602
     16          6           0       -2.364335    1.365303   -1.246584
     17          7           0       -2.677715    1.978423   -2.168166
 ---------------------------------------------------------------------
                    Distance matrix (angstroms):
                    1          2          3          4          5
     1  C    0.000000
     2  C    1.386197   0.000000
     3  C    2.404479   1.390469   0.000000
     4  C    2.772604   2.403399   1.387757   0.000000
     5  C    2.407049   2.781606   2.410473   1.390303   0.000000
     6  C    1.391447   2.407050   2.779503   2.401974   1.387558
     7  H    1.086630   2.145969   3.389230   3.859196   3.391084
     8  H    2.143188   1.084975   2.151593   3.388737   3.866570
     9  H    3.387990   2.149920   1.085060   2.148528   3.393786
    10  H    3.857721   3.388305   2.147681   1.085122   2.144382
    11  H    3.386017   3.864447   3.394870   2.154586   1.082866
    12  O    3.690199   4.806731   4.978007   4.113781   2.724706
[...]
     15          1           0        1.578147   -0.690602    1.480230
     16          6           0        2.187262   -0.569526   -0.504168
     17          7           0        2.819407   -0.993018   -1.367312
 ---------------------------------------------------------------------
 Rotational constants (GHZ):      2.6786135      0.8892199      0.8233203
 Standard basis: 6-311+G(2d,p) (5D, 7F)
 There are   332 symmetry adapted cartesian basis functions of A   symmetry.
 There are   312 symmetry adapted basis functions of A   symmetry.
   312 basis functions,   476 primitive gaussians,   332 cartesian basis functions
    35 alpha electrons       35 beta electrons
       nuclear repulsion energy       463.8047441732 Hartrees.
 NAtoms=   17 NActive=   17 NUniq=   17 SFac= 1.00D+00 NAtFMM=   60 NAOKFM=F Big=F
 Integral buffers will be    262144 words long.
 Raffenetti 2 integral format.
 Two-electron integral symmetry is turned on.
 R6APFD:  NTU= -4 IXU= 1 FactS= 1.050
 Nuclear repulsion after empirical dispersion term =      463.7952147106 Hartrees.
 One-electron integrals computed using PRISM.
 NBasis=   312 RedAO= T EigKep=  2.54D-06  NBF=   312
 NBsUse=   312 1.00D-06 EigRej= -1.00D+00 NBFU=   312
 Initial guess from the checkpoint file:  "D:\mindmap\gaussian\calculate\opt_freq\C6H5COHCN\C6H5OHCN.chk"
 B after Tr=     0.000000    0.000000    0.000000
         Rot=    0.999895    0.014234    0.000384   -0.002815 Ang=   1.66 deg.
 ExpMin= 4.38D-02 ExpMax= 8.59D+03 ExpMxC= 1.30D+03 IAcc=2 IRadAn=         4 AccDes= 0.00D+00
 Harris functional with IExCor= 3731 and IRadAn=       4 diagonalized for initial guess.
 HarFok:  IExCor= 3731 AccDes= 0.00D+00 IRadAn=         4 IDoV= 1 UseB2=F ITyADJ=14
 ICtDFT=  3500011 ScaDFX=  1.000000  1.000000  1.000000  1.000000
 FoFCou: FMM=F IPFlag=           0 FMFlag=      100000 FMFlg1=           0
         NFxFlg=           0 DoJE=T BraDBF=F KetDBF=T FulRan=T
         wScrn=  0.000000 ICntrl=     500 IOpCl=  0 I1Cent=   200000004 NGrid=           0
         NMat0=    1 NMatS0=      1 NMatT0=    0 NMatD0=    1 NMtDS0=    0 NMtDT0=    0
 Petite list used in FoFCou.
 Requested convergence on RMS density matrix=1.00D-08 within 128 cycles.
 Requested convergence on MAX density matrix=1.00D-06.
 Requested convergence on             energy=1.00D-06.
 No special actions if energy rises.
 SCF Done:  E(RAPFD) =  -438.770949317     A.U. after   11 cycles
            NFock= 11  Conv=0.71D-08     -V/T= 2.0039
 R6APFD:  NTU= -4 IXU= 1 FactS= 1.050
 Calling FoFJK, ICntrl=      2127 FMM=F ISym2X=0 I1Cent= 0 IOpClX= 0 NMat=1 NMatS=1 NMatT=0.
 ***** Axes restored to original set *****
 -------------------------------------------------------------------
 Center     Atomic                   Forces (Hartrees/Bohr)
 Number     Number              X              Y              Z
 -------------------------------------------------------------------
      1        6          -0.000011306    0.000051103   -0.000059348
      2        6          -0.000053191    0.000154314   -0.000180870
      3        6           0.000006651   -0.000143588   -0.000054278
      4        6           0.000183525    0.000125661   -0.000039828
      5        6          -0.000127197    0.000147185   -0.000320256
      6        6          -0.000019948   -0.000488744    0.000516976
      7        1           0.000000763   -0.000002386    0.000133617
      8        1           0.000009949   -0.000015351    0.000019239
      9        1           0.000002714    0.000000792    0.000055958
     10        1          -0.000014826   -0.000010090    0.000019679
     11        1          -0.000024243    0.000007585    0.000137826
     12        8           0.000120741    0.000234647   -0.000141544
     13        1           0.000042504   -0.000045272    0.000013834
     14        6          -0.000246152    0.000002733    0.000237903
     15        1           0.000086846   -0.000004975   -0.000186952
     16        6           0.000023875   -0.000022882   -0.000116079
     17        7           0.000019296    0.000009269   -0.000035879
 -------------------------------------------------------------------
 Cartesian Forces:  Max     0.000516976 RMS     0.000146797

 GradGradGradGradGradGradGradGradGradGradGradGradGradGradGradGradGradGrad
 Berny optimization.
 Using GEDIIS/GDIIS optimizer.
 FormGI is forming the generalized inverse of G from B-inverse, IUseBI=4.
 Internal  Forces:  Max     0.000279014 RMS     0.000083125
 Search for a local minimum.
 Step number  13 out of a maximum of   87
 All quantities printed in internal units (Hartrees-Bohrs-Radians)
 Mixed Optimization -- En-DIIS/RFO-DIIS
 Swapping is turned off.
 Update second derivatives using D2CorX and points   10   11   12   13
 DE=  8.53D-07 DEPred=-4.26D-06 R=-2.00D-01
 Trust test=-2.00D-01 RLast= 1.38D-01 DXMaxT set to 5.87D-01
 ITU= -1  1  1  0  0  0  1  1  1  1  1  1  0
     Eigenvalues ---    0.00043   0.00415   0.01663   0.02181   0.02220
     Eigenvalues ---    0.02221   0.02222   0.02222   0.02229   0.02234
     Eigenvalues ---    0.02410   0.05124   0.06279   0.07519   0.08672
     Eigenvalues ---    0.12084   0.15658   0.15967   0.15988   0.16011
     Eigenvalues ---    0.16031   0.16345   0.20270   0.21488   0.21940
     Eigenvalues ---    0.22045   0.24014   0.24895   0.27811   0.31368
     Eigenvalues ---    0.35340   0.35343   0.35350   0.35374   0.35884
     Eigenvalues ---    0.36353   0.38709   0.43162   0.44203   0.45754
     Eigenvalues ---    0.47431   0.47905   0.48208   0.55860   1.37014
 En-DIIS/RFO-DIIS IScMMF=        0 using points:    13   12   11   10    9
 RFO step:  Lambda=-2.39593312D-06.
 DidBck=F Rises=F RFO-DIIS coefs:    0.82148    0.95907   -0.97071   -0.06702    0.25719
 Iteration  1 RMS(Cart)=  0.03014681 RMS(Int)=  0.00030177
 Iteration  2 RMS(Cart)=  0.00044757 RMS(Int)=  0.00000653
 Iteration  3 RMS(Cart)=  0.00000007 RMS(Int)=  0.00000653
 Variable       Old X    -DE/DX   Delta X   Delta X   Delta X     New X
                                 (Linear)    (Quad)   (Total)
    R1        2.62425  -0.00003   0.00059  -0.00006   0.00053   2.62479
    R2        2.62441   0.00005  -0.00041  -0.00003  -0.00044   2.62397
    R3        2.05289   0.00002  -0.00014   0.00011  -0.00004   2.05285
    R4        2.62405   0.00007  -0.00059   0.00026  -0.00032   2.62372
    R5        2.05025   0.00000  -0.00001   0.00000   0.00000   2.05025
    R6        2.62728  -0.00006   0.00053  -0.00002   0.00051   2.62779
    R7        2.05055   0.00000   0.00002  -0.00001   0.00001   2.05056
    R8        2.62150   0.00014  -0.00062   0.00004  -0.00058   2.62092
    R9        2.05045   0.00000  -0.00003   0.00004   0.00000   2.05045
   R10        2.62742  -0.00015   0.00081  -0.00032   0.00049   2.62791
   R11        2.04849  -0.00001   0.00003   0.00026   0.00029   2.04879
   R12        2.85534   0.00000  -0.00084  -0.00018  -0.00103   2.85431
   R13        1.81885  -0.00005   0.00023  -0.00013   0.00010   1.81896
   R14        2.66659  -0.00028   0.00087  -0.00056   0.00030   2.66690
   R15        2.07727  -0.00011  -0.00003  -0.00029  -0.00032   2.07695
   R16        2.79176   0.00013  -0.00039   0.00051   0.00012   2.79189
   R17        2.17439   0.00003   0.00007  -0.00006   0.00001   2.17440
    A1        2.09573   0.00001   0.00013  -0.00009   0.00004   2.09577
    A2        2.09386  -0.00002  -0.00012   0.00008  -0.00004   2.09382
    A3        2.09360   0.00001  -0.00001   0.00000   0.00000   2.09359
    A4        2.09343  -0.00002  -0.00002  -0.00012  -0.00014   2.09329
    A5        2.09164   0.00003   0.00003   0.00006   0.00008   2.09173
    A6        2.09810  -0.00001  -0.00002   0.00007   0.00005   2.09815
    A7        2.09294  -0.00003   0.00008   0.00009   0.00017   2.09312
    A8        2.09500   0.00000   0.00007  -0.00005   0.00002   2.09502
    A9        2.09524   0.00002  -0.00016  -0.00004  -0.00019   2.09505
   A10        2.09812   0.00004  -0.00012  -0.00008  -0.00020   2.09792
   A11        2.09512  -0.00001  -0.00022   0.00020  -0.00001   2.09511
   A12        2.08994  -0.00004   0.00034  -0.00012   0.00021   2.09016
   A13        2.09088  -0.00005   0.00025  -0.00005   0.00020   2.09108
   A14        2.10706   0.00006   0.00006  -0.00013  -0.00007   2.10699
   A15        2.08520  -0.00001  -0.00032   0.00017  -0.00014   2.08506
   A16        2.09525   0.00004  -0.00032   0.00025  -0.00007   2.09517
   A17        2.09143  -0.00020   0.00204  -0.00027   0.00178   2.09321
   A18        2.09643   0.00016  -0.00178   0.00003  -0.00175   2.09468
   A19        1.90228   0.00006   0.00026   0.00039   0.00065   1.90293
   A20        1.91220   0.00002  -0.00146  -0.00042  -0.00187   1.91033
   A21        1.89530  -0.00002   0.00049   0.00002   0.00050   1.89580
   A22        1.92692  -0.00019   0.00020  -0.00003   0.00019   1.92711
   A23        1.93469   0.00010   0.00029   0.00110   0.00138   1.93607
   A24        1.93196   0.00008  -0.00003   0.00013   0.00012   1.93208
   A25        1.86205   0.00001   0.00056  -0.00080  -0.00025   1.86180
   A26        3.15947  -0.00005   0.00013   0.00098   0.00111   3.16058
   A27        3.17310  -0.00003   0.00056  -0.00071  -0.00015   3.17296
    D1       -0.00470  -0.00004  -0.00046   0.00024  -0.00022  -0.00492
    D2       -3.14060   0.00001   0.00067  -0.00010   0.00056  -3.14004
    D3        3.13826  -0.00004  -0.00084  -0.00031  -0.00116   3.13710
    D4        0.00236   0.00001   0.00028  -0.00066  -0.00038   0.00198
    D5        0.00309   0.00002  -0.00092   0.00080  -0.00012   0.00297
    D6       -3.12465   0.00018   0.00294   0.00033   0.00324  -3.12141
    D7       -3.13987   0.00002  -0.00054   0.00136   0.00082  -3.13905
    D8        0.01558   0.00018   0.00332   0.00088   0.00418   0.01976
    D9        0.00127   0.00003   0.00129  -0.00115   0.00014   0.00141
   D10       -3.13826   0.00006   0.00044   0.00042   0.00086  -3.13740
   D11        3.13715  -0.00002   0.00016  -0.00080  -0.00064   3.13651
   D12       -0.00239   0.00001  -0.00068   0.00077   0.00008  -0.00230
   D13        0.00379   0.00000  -0.00075   0.00102   0.00027   0.00406
   D14       -3.13939   0.00002  -0.00065   0.00085   0.00020  -3.13919
   D15       -3.13986  -0.00002   0.00010  -0.00055  -0.00045  -3.14031
   D16        0.00014  -0.00001   0.00020  -0.00072  -0.00052  -0.00038
   D17       -0.00540  -0.00002  -0.00062   0.00002  -0.00061  -0.00600
   D18       -3.13733   0.00002   0.00035   0.00014   0.00048  -3.13685
   D19        3.13778  -0.00003  -0.00073   0.00019  -0.00054   3.13724
   D20        0.00585   0.00000   0.00024   0.00031   0.00055   0.00639
   D21        0.00196   0.00001   0.00146  -0.00093   0.00053   0.00249
   D22        3.12966  -0.00015  -0.00232  -0.00046  -0.00281   3.12685
   D23        3.13401  -0.00003   0.00050  -0.00105  -0.00054   3.13347
   D24       -0.02147  -0.00019  -0.00328  -0.00058  -0.00388  -0.02535
   D25       -2.51595  -0.00007   0.04397   0.00345   0.04741  -2.46854
   D26       -0.40060   0.00005   0.04372   0.00455   0.04827  -0.35232
   D27        1.63515  -0.00006   0.04479   0.00358   0.04838   1.68352
   D28        0.63950   0.00008   0.04780   0.00297   0.05076   0.69026
   D29        2.75485   0.00021   0.04755   0.00407   0.05162   2.80648
   D30       -1.49258   0.00010   0.04861   0.00311   0.05172  -1.44086
   D31       -2.99509   0.00008   0.00652  -0.00528   0.00125  -2.99384
   D32        1.19670   0.00003   0.00669  -0.00573   0.00096   1.19766
   D33       -0.86602  -0.00009   0.00583  -0.00551   0.00032  -0.86570
         Item               Value     Threshold  Converged?
 Maximum Force            0.000279     0.000450     YES
 RMS     Force            0.000083     0.000300     YES
 Maximum Displacement     0.139433     0.001800     NO 
 RMS     Displacement     0.030141     0.001200     NO 
 Predicted change in Energy=-1.319502D-05
 GradGradGradGradGradGradGradGradGradGradGradGradGradGradGradGradGradGrad

                          Input orientation:                          
 ---------------------------------------------------------------------
 Center     Atomic      Atomic             Coordinates (Angstroms)
 Number     Number       Type             X           Y           Z
 ---------------------------------------------------------------------
      1          6           0        0.426705    1.326409    0.241034
      2          6           0        1.777701    1.004080    0.254174
      3          6           0        2.180562   -0.302894    0.014975
      4          6           0        1.230654   -1.286195   -0.238933
      5          6           0       -0.118323   -0.964562   -0.258804
      6          6           0       -0.520563    0.344432   -0.016758
      7          1           0        0.110711    2.348012    0.432263
      8          1           0        2.514564    1.774024    0.457451
      9          1           0        3.235345   -0.557269    0.028711
     10          1           0        1.543290   -2.308637   -0.423898
     11          1           0       -0.866325   -1.725331   -0.451546
     12          8           0       -2.740775   -0.331578    0.536955
     13          1           0       -3.676889   -0.161471    0.391147
     14          6           0       -1.987109    0.703762   -0.056101
     15          1           0       -2.130778    1.651495    0.481605
     16          6           0       -2.423651    0.935894   -1.448316
     17          7           0       -2.796061    1.120212   -2.521312
 ---------------------------------------------------------------------
                    Distance matrix (angstroms):
                    1          2          3          4          5
     1  C    0.000000
     2  C    1.388977   0.000000
     3  C    2.404526   1.388415   0.000000
     4  C    2.775320   2.405780   1.390566   0.000000
     5  C    2.407372   2.780936   2.407827   1.386933   0.000000
     6  C    1.388543   2.406357   2.777789   2.403136   1.390628
     7  H    1.086322   2.148656   3.389059   3.861637   3.391633
     8  H    2.146240   1.084943   2.149636   3.390917   3.865872
     9  H    3.388477   2.147876   1.085109   2.149826   3.390523
    10  H    3.860370   3.389517   2.149820   1.085054   2.143538
    11  H    3.385958   3.865048   3.394773   2.152989   1.084170
    12  O    3.587398   4.720230   4.949025   4.157589   2.812678
    13  H    4.367586   5.579410   5.871221   5.074050   3.705507
    14  C    2.510474   3.789492   4.288110   3.787790   2.513315
    15  H    2.589262   3.968259   4.756579   4.521994   3.382593
    16  C    3.336306   4.533704   4.987443   4.444573   3.215775
    17  N    4.249623   5.351271   5.764092   5.216749   4.078664
                    6          7          8          9         10
     6  C    0.000000
     7  H    2.148129   0.000000
     8  H    3.388303   2.471559   0.000000
     9  H    3.862897   4.285657   2.477554   0.000000
    10  H    3.385857   4.946683   4.288155   2.476932   0.000000
    11  H    2.143014   4.281103   4.949967   4.291702   2.479366
    12  O    2.385987   3.914350   5.662020   6.001938   4.815103
    13  H    3.222533   4.543689   6.487266   6.933036   5.703060
    14  C    1.510438   2.709779   4.655561   5.373213   4.655485
    15  H    2.132973   2.347732   4.647020   5.820570   5.477350
    16  C    2.453758   3.457404   5.359139   6.036172   5.226187
    17  N    3.471673   4.322085   6.123988   6.759764   5.914906
                   11         12         13         14         15
    11  H    0.000000
    12  O    2.536385   0.000000
    13  H    3.324915   0.962551   0.000000
    14  C    2.704261   1.411261   1.950389   0.000000
    15  H    3.724590   2.075509   2.384426   1.099076   0.000000
    16  C    3.240514   2.376627   2.481621   1.477402   2.079052
    17  N    4.013094   3.385816   3.301665   2.627755   3.121278
                   16         17
    16  C    0.000000
    17  N    1.150644   0.000000
 Stoichiometry    C8H7NO
 Framework group  C1[X(C8H7NO)]
 Deg. of freedom    45
 Full point group                 C1      NOp   1
 Largest Abelian subgroup         C1      NOp   1
 Largest concise Abelian subgroup C1      NOp   1
                         Standard orientation:                         
 ---------------------------------------------------------------------
 Center     Atomic      Atomic             Coordinates (Angstroms)
 Number     Number       Type             X           Y           Z
 ---------------------------------------------------------------------
      1          6           0       -0.877844   -1.091079    0.665652
      2          6           0       -2.229295   -1.074102    0.345421
      3          6           0       -2.766603    0.010450   -0.334830
      4          6           0       -1.950185    1.076738   -0.695617
      5          6           0       -0.599239    1.058265   -0.382269
      6          6           0       -0.062864   -0.027598    0.301141
      7          1           0       -0.457776   -1.937503    1.201567
      8          1           0       -2.862927   -1.906398    0.633337
      9          1           0       -3.822965    0.027155   -0.582382
     10          1           0       -2.368592    1.926272   -1.225304
     11          1           0        0.044120    1.886993   -0.655628
     12          8           0        1.837089    1.227960    1.012961
     13          1           0        2.796484    1.231507    1.090767
     14          6           0        1.411403   -0.061319    0.627979
     15          1           0        1.574952   -0.786725    1.437302
     16          6           0        2.186165   -0.541577   -0.534696
     17          7           0        2.818680   -0.909093   -1.422862
 ---------------------------------------------------------------------
 Rotational constants (GHZ):      2.6803504      0.8833826      0.8293415
 Standard basis: 6-311+G(2d,p) (5D, 7F)
 There are   332 symmetry adapted cartesian basis functions of A   symmetry.
 There are   312 symmetry adapted basis functions of A   symmetry.
   312 basis functions,   476 primitive gaussians,   332 cartesian basis functions
    35 alpha electrons       35 beta electrons
       nuclear repulsion energy       463.8289943573 Hartrees.
 NAtoms=   17 NActive=   17 NUniq=   17 SFac= 1.00D+00 NAtFMM=   60 NAOKFM=F Big=F
 Integral buffers will be    262144 words long.
 Raffenetti 2 integral format.
 Two-electron integral symmetry is turned on.
 R6APFD:  NTU= -4 IXU= 1 FactS= 1.050
 Nuclear repulsion after empirical dispersion term =      463.8194604082 Hartrees.
 One-electron integrals computed using PRISM.
 NBasis=   312 RedAO= T EigKep=  2.54D-06  NBF=   312
 NBsUse=   312 1.00D-06 EigRej= -1.00D+00 NBFU=   312
 Initial guess from the checkpoint file:  "D:\mindmap\gaussian\calculate\opt_freq\C6H5COHCN\C6H5OHCN.chk"
 B after Tr=     0.000000    0.000000    0.000000
         Rot=    0.999806   -0.019594    0.001078    0.001909 Ang=  -2.26 deg.
 ExpMin= 4.38D-02 ExpMax= 8.59D+03 ExpMxC= 1.30D+03 IAcc=2 IRadAn=         4 AccDes= 0.00D+00
 Harris functional with IExCor= 3731 and IRadAn=       4 diagonalized for initial guess.
 HarFok:  IExCor= 3731 AccDes= 0.00D+00 IRadAn=         4 IDoV= 1 UseB2=F ITyADJ=14
 ICtDFT=  3500011 ScaDFX=  1.000000  1.000000  1.000000  1.000000
 FoFCou: FMM=F IPFlag=           0 FMFlag=      100000 FMFlg1=           0
         NFxFlg=           0 DoJE=T BraDBF=F KetDBF=T FulRan=T
         wScrn=  0.000000 ICntrl=     500 IOpCl=  0 I1Cent=   200000004 NGrid=           0
         NMat0=    1 NMatS0=      1 NMatT0=    0 NMatD0=    1 NMtDS0=    0 NMtDT0=    0
 Petite list used in FoFCou.
 Requested convergence on RMS density matrix=1.00D-08 within 128 cycles.
 Requested convergence on MAX density matrix=1.00D-06.
 Requested convergence on             energy=1.00D-06.
 No special actions if energy rises.
