 Entering Link 1 = C:\G09W\l1.exe PID=     11360.
  
 Copyright (c) 1988,1990,1992,1993,1995,1998,2003,2009,2013,
            Gaussian, Inc.  All Rights Reserved.
  
 This is part of the Gaussian(R) 09 program.  It is based on
 the Gaussian(R) 03 system (copyright 2003, Gaussian, Inc.),
 the Gaussian(R) 98 system (copyright 1998, Gaussian, Inc.),
 the Gaussian(R) 94 system (copyright 1995, Gaussian, Inc.),
 the Gaussian 92(TM) system (copyright 1992, Gaussian, Inc.),
 the Gaussian 90(TM) system (copyright 1990, Gaussian, Inc.),
 the Gaussian 88(TM) system (copyright 1988, Gaussian, Inc.),
 the Gaussian 86(TM) system (copyright 1986, Carnegie Mellon
 University), and the Gaussian 82(TM) system (copyright 1983,
 Carnegie Mellon University). Gaussian is a federally registered
 trademark of Gaussian, Inc.
  
 This software contains proprietary and confidential information,
 including trade secrets, belonging to Gaussian, Inc.
  
 This software is provided under written license and may be
 used, copied, transmitted, or stored only in accord with that
 written license.
  
 The following legend is applicable only to US Government
 contracts under FAR:
  
                    RESTRICTED RIGHTS LEGEND
  
 Use, reproduction and disclosure by the US Government is
 subject to restrictions as set forth in subparagraphs (a)
 and (c) of the Commercial Computer Software - Restricted
 Rights clause in FAR 52.227-19.
  
 Gaussian, Inc.
 340 Quinnipiac St., Bldg. 40, Wallingford CT 06492
  
  
 ---------------------------------------------------------------
 Warning -- This program may not be used in any manner that
 competes with the business of Gaussian, Inc. or will provide
 assistance to any competitor of Gaussian, Inc.  The licensee
 of this program is prohibited from giving any competitor of
 Gaussian, Inc. access to this program.  By using this program,
 the user acknowledges that Gaussian, Inc. is engaged in the
 business of creating and licensing software in the field of
 computational chemistry and represents and warrants to the
 licensee that it is not a competitor of Gaussian, Inc. and that
 it will not use this program in any manner prohibited above.
 ---------------------------------------------------------------
  

 Cite this work as:
 Gaussian 09, Revision D.01,
 M. J. Frisch, G. W. Trucks, H. B. Schlegel, G. E. Scuseria, 
 M. A. Robb, J. R. Cheeseman, G. Scalmani, V. Barone, B. Mennucci, 
 G. A. Petersson, H. Nakatsuji, M. Caricato, X. Li, H. P. Hratchian, 
 A. F. Izmaylov, J. Bloino, G. Zheng, J. L. Sonnenberg, M. Hada, 
 M. Ehara, K. Toyota, R. Fukuda, J. Hasegawa, M. Ishida, T. Nakajima, 
 Y. Honda, O. Kitao, H. Nakai, T. Vreven, J. A. Montgomery, Jr., 
 J. E. Peralta, F. Ogliaro, M. Bearpark, J. J. Heyd, E. Brothers, 
 K. N. Kudin, V. N. Staroverov, T. Keith, R. Kobayashi, J. Normand, 
 K. Raghavachari, A. Rendell, J. C. Burant, S. S. Iyengar, J. Tomasi, 
 M. Cossi, N. Rega, J. M. Millam, M. Klene, J. E. Knox, J. B. Cross, 
 V. Bakken, C. Adamo, J. Jaramillo, R. Gomperts, R. E. Stratmann, 
 O. Yazyev, A. J. Austin, R. Cammi, C. Pomelli, J. W. Ochterski, 
 R. L. Martin, K. Morokuma, V. G. Zakrzewski, G. A. Voth, 
 P. Salvador, J. J. Dannenberg, S. Dapprich, A. D. Daniels, 
 O. Farkas, J. B. Foresman, J. V. Ortiz, J. Cioslowski, 
 and D. J. Fox, Gaussian, Inc., Wallingford CT, 2013.
 
 ******************************************
 Gaussian 09:  IA32W-G09RevD.01 24-Apr-2013
                05-Feb-2022 
 ******************************************
 %chk=D:\mindmap\gaussian\calculate\ch3n2_perpendicular\energy.chk
 %nprocshared=4
 Will use up to    4 processors via shared memory.
 %mem=1GB
 -------------------------------------------------------------
 # apfd/6-311+g(2d,p) geom=connectivity pop=full int=ultrafine
 -------------------------------------------------------------
 1/38=1,57=2/1;
 2/12=2,17=6,18=5,40=1/2;
 3/5=4,6=6,7=112,11=2,16=1,25=1,30=1,74=-44,75=-5/1,2,3;
 4//1;
 5/5=2,38=5/2;
 6/7=3,28=1/1;
 99/5=1,9=1/99;
 ----------------------
 Energy Calculation(GC)
 ----------------------
 Symbolic Z-matrix:
 Charge =  0 Multiplicity = 1
 C                    -1.95359  -0.49323   0.41876 
 H                    -2.89389  -0.88845   0.0954 
 H                    -1.42955  -0.95824   1.22749 
 N                    -1.46604   0.49663  -0.13352 
 N                    -0.93649   1.57176  -0.73336 
 
                          Input orientation:                          
 ---------------------------------------------------------------------
 Center     Atomic      Atomic             Coordinates (Angstroms)
 Number     Number       Type             X           Y           Z
 ---------------------------------------------------------------------
      1          6           0       -1.953594   -0.493235    0.418757
      2          1           0       -2.893885   -0.888450    0.095403
      3          1           0       -1.429548   -0.958240    1.227488
      4          7           0       -1.466036    0.496634   -0.133515
      5          7           0       -0.936488    1.571761   -0.733358
 ---------------------------------------------------------------------
                    Distance matrix (angstroms):
                    1          2          3          4          5
     1  C    0.000000
     2  H    1.070000   0.000000
     3  H    1.070000   1.852234   0.000000
     4  N    1.233920   2.002402   1.992566   0.000000
     5  N    2.574118   3.251290   3.238662   1.340198   0.000000
 Stoichiometry    CH2N2
 Framework group  CS[SG(CH2N2)]
 Deg. of freedom     7
 Full point group                 CS      NOp   2
 Largest Abelian subgroup         CS      NOp   2
 Largest concise Abelian subgroup C1      NOp   1
                         Standard orientation:                         
 ---------------------------------------------------------------------
 Center     Atomic      Atomic             Coordinates (Angstroms)
 Number     Number       Type             X           Y           Z
 ---------------------------------------------------------------------
      1          6           0        0.007254   -1.162908    0.000000
      2          1           0        0.931911   -1.701340    0.000000
      3          1           0       -0.920316   -1.696306    0.000000
      4          7           0        0.000000    0.070991    0.000000
      5          7           0       -0.007874    1.411165    0.000000
 ---------------------------------------------------------------------
 Rotational constants (GHZ):    292.3427063     10.1620423      9.8206688
 Standard basis: 6-311+G(2d,p) (5D, 7F)
 There are    73 symmetry adapted cartesian basis functions of A'  symmetry.
 There are    26 symmetry adapted cartesian basis functions of A"  symmetry.
 There are    67 symmetry adapted basis functions of A'  symmetry.
 There are    26 symmetry adapted basis functions of A"  symmetry.
    93 basis functions,   142 primitive gaussians,    99 cartesian basis functions
    11 alpha electrons       11 beta electrons
       nuclear repulsion energy        58.2063091965 Hartrees.
 NAtoms=    5 NActive=    5 NUniq=    5 SFac= 1.00D+00 NAtFMM=   60 NAOKFM=F Big=F
 Integral buffers will be    262144 words long.
 Raffenetti 2 integral format.
 Two-electron integral symmetry is turned on.
 R6APFD:  NTU= -4 IXU= 1 FactS= 1.050
 Nuclear repulsion after empirical dispersion term =       58.2060158150 Hartrees.
 One-electron integrals computed using PRISM.
 NBasis=    93 RedAO= T EigKep=  2.33D-04  NBF=    67    26
 NBsUse=    93 1.00D-06 EigRej= -1.00D+00 NBFU=    67    26
 ExpMin= 4.38D-02 ExpMax= 6.29D+03 ExpMxC= 9.49D+02 IAcc=3 IRadAn=         5 AccDes= 0.00D+00
 Harris functional with IExCor= 3731 and IRadAn=       5 diagonalized for initial guess.
 HarFok:  IExCor= 3731 AccDes= 0.00D+00 IRadAn=         5 IDoV= 1 UseB2=F ITyADJ=14
 ICtDFT=  3500011 ScaDFX=  1.000000  1.000000  1.000000  1.000000
 FoFCou: FMM=F IPFlag=           0 FMFlag=      100000 FMFlg1=           0
         NFxFlg=           0 DoJE=T BraDBF=F KetDBF=T FulRan=T
         wScrn=  0.000000 ICntrl=     500 IOpCl=  0 I1Cent=   200000004 NGrid=           0
         NMat0=    1 NMatS0=      1 NMatT0=    0 NMatD0=    1 NMtDS0=    0 NMtDT0=    0
 Petite list used in FoFCou.
 Initial guess orbital symmetries:
       Occupied  (A') (A') (A') (A') (A') (A') (A') (A") (A') (A')
                 (A")
       Virtual   (A') (A') (A") (A') (A') (A") (A') (A') (A') (A")
                 (A') (A') (A') (A") (A') (A') (A') (A') (A') (A')
                 (A") (A") (A') (A') (A') (A') (A") (A') (A") (A')
                 (A') (A") (A") (A') (A') (A') (A') (A") (A') (A')
                 (A') (A") (A') (A') (A") (A") (A") (A') (A') (A')
                 (A') (A') (A') (A') (A") (A') (A") (A') (A") (A')
                 (A') (A") (A') (A') (A") (A') (A') (A') (A") (A')
                 (A") (A') (A') (A") (A') (A") (A') (A') (A') (A')
                 (A') (A')
 The electronic state of the initial guess is 1-A'.
 Keep R1 ints in memory in symmetry-blocked form, NReq=14584611.
 Requested convergence on RMS density matrix=1.00D-08 within 128 cycles.
 Requested convergence on MAX density matrix=1.00D-06.
 Requested convergence on             energy=1.00D-06.
 No special actions if energy rises.
 EnCoef did     5 forward-backward iterations
 SCF Done:  E(RAPFD) =  -148.601079422     A.U. after   12 cycles
            NFock= 12  Conv=0.58D-08     -V/T= 2.0061

 **********************************************************************

            Population analysis using the SCF density.

 **********************************************************************

 Orbital symmetries:
       Occupied  (A') (A') (A') (A') (A') (A') (A') (A') (A") (A')
                 (A")
       Virtual   (A') (A") (A') (A') (A') (A") (A') (A') (A') (A")
                 (A') (A') (A') (A") (A') (A') (A') (A') (A') (A')
                 (A") (A") (A') (A') (A') (A') (A') (A") (A") (A')
                 (A') (A") (A") (A') (A') (A') (A') (A") (A') (A')
                 (A') (A") (A') (A') (A") (A") (A') (A") (A') (A')
                 (A') (A') (A') (A') (A") (A') (A") (A') (A") (A')
                 (A') (A") (A') (A") (A') (A') (A') (A') (A") (A')
                 (A") (A') (A') (A") (A') (A") (A') (A') (A') (A')
                 (A') (A')
 The electronic state is 1-A'.
 Alpha  occ. eigenvalues --  -14.48861 -14.43675 -10.25609  -1.03858  -0.85960
 Alpha  occ. eigenvalues --   -0.60371  -0.53211  -0.45978  -0.45115  -0.36290
 Alpha  occ. eigenvalues --   -0.24781
 Alpha virt. eigenvalues --   -0.09705  -0.01971   0.00846   0.04807   0.04823
 Alpha virt. eigenvalues --    0.07647   0.10344   0.13857   0.14362   0.15336
 Alpha virt. eigenvalues --    0.17499   0.21397   0.21657   0.22337   0.22834
 Alpha virt. eigenvalues --    0.23299   0.28972   0.35645   0.50287   0.51235
 Alpha virt. eigenvalues --    0.53846   0.55053   0.65795   0.66120   0.75084
 Alpha virt. eigenvalues --    0.77132   0.77481   0.78138   0.80868   0.84155
 Alpha virt. eigenvalues --    0.85532   0.86648   0.89805   0.97364   1.00416
 Alpha virt. eigenvalues --    1.01113   1.12713   1.21189   1.23588   1.25572
 Alpha virt. eigenvalues --    1.30307   1.31930   1.38972   1.65910   1.67605
 Alpha virt. eigenvalues --    1.77375   1.89237   1.89304   2.06200   2.10245
 Alpha virt. eigenvalues --    2.32688   2.33942   2.49949   2.63477   2.80087
 Alpha virt. eigenvalues --    2.82936   3.19863   3.23154   3.35863   3.41601
 Alpha virt. eigenvalues --    3.50559   3.83677   3.86851   3.92547   3.92651
 Alpha virt. eigenvalues --    3.98411   4.11771   4.44899   4.67542   4.68441
 Alpha virt. eigenvalues --    4.79392   4.81342   4.85729   4.91104   4.91374
 Alpha virt. eigenvalues --    5.09265   5.23503   5.37300   5.56075  24.26325
 Alpha virt. eigenvalues --   35.49760  35.57593
     Molecular Orbital Coefficients:
                           1         2         3         4         5
                           O         O         O         O         O
     Eigenvalues --   -14.48861 -14.43675 -10.25609  -1.03858  -0.85960
   1 1   C  1S         -0.00002   0.00005   0.56315  -0.05059   0.07322
   2        2S          0.00021  -0.00025   0.46284  -0.07755   0.11445
   3        2PX         0.00000   0.00000   0.00000  -0.00047   0.00058
   4        2PY         0.00046  -0.00017   0.00065   0.06297  -0.06299
   5        2PZ         0.00000   0.00000   0.00000   0.00000   0.00000
   6        3S         -0.00101   0.00329   0.02355   0.18647  -0.30904
   7        3PX         0.00002  -0.00002  -0.00006  -0.00054   0.00078
   8        3PY        -0.00356   0.00358   0.00588   0.07434  -0.09205
   9        3PZ         0.00000   0.00000   0.00000   0.00000   0.00000
  10        4S          0.00452   0.01162   0.01370   0.03584  -0.18359
  11        4PX        -0.00005  -0.00003  -0.00010   0.00019   0.00021
  12        4PY        -0.00002   0.00437   0.00602   0.00510  -0.03050
  13        4PZ         0.00000   0.00000   0.00000   0.00000   0.00000
  14        5S         -0.00137  -0.00063  -0.00377   0.03737  -0.01052
  15        5PX         0.00000   0.00000  -0.00001  -0.00007  -0.00004
  16        5PY        -0.00100  -0.00101  -0.00112   0.01895   0.00534
  17        5PZ         0.00000   0.00000   0.00000   0.00000   0.00000
  18        6D 0        0.00030  -0.00009  -0.00128  -0.00749   0.00931
  19        6D+1        0.00000   0.00000   0.00000   0.00000   0.00000
  20        6D-1        0.00000   0.00000   0.00000   0.00000   0.00000
  21        6D+2        0.00068  -0.00031  -0.00084  -0.00984   0.01025
  22        6D-2        0.00000   0.00000  -0.00002  -0.00012   0.00015
  23        7D 0       -0.00008  -0.00044  -0.00262  -0.00335   0.00646
  24        7D+1        0.00000   0.00000   0.00000   0.00000   0.00000
  25        7D-1        0.00000   0.00000   0.00000   0.00000   0.00000
  26        7D+2        0.00240  -0.00050  -0.00015  -0.00993   0.00546
  27        7D-2        0.00002   0.00001  -0.00008  -0.00024   0.00014
  28 2   H  1S         -0.00011   0.00002   0.00027   0.01657  -0.03671
  29        2S         -0.00226  -0.00013  -0.00507   0.02203  -0.04043
  30        3S          0.00108   0.00022   0.00215  -0.00681   0.00115
  31        4PX         0.00036  -0.00020   0.00157  -0.00269   0.00667
  32        4PY        -0.00059   0.00000  -0.00127   0.00370  -0.00465
  33        4PZ         0.00000   0.00000   0.00000   0.00000   0.00000
  34 3   H  1S         -0.00011   0.00001   0.00027   0.01687  -0.03709
  35        2S         -0.00230  -0.00015  -0.00505   0.02261  -0.04091
  36        3S          0.00104   0.00022   0.00205  -0.00668   0.00110
  37        4PX        -0.00037   0.00019  -0.00156   0.00280  -0.00676
  38        4PY        -0.00057   0.00001  -0.00127   0.00368  -0.00472
  39        4PZ         0.00000   0.00000   0.00000   0.00000   0.00000
  40 4   N  1S          0.55766  -0.00168  -0.00015  -0.10544   0.01260
  41        2S          0.46579  -0.00142  -0.00008  -0.16723   0.02023
  42        2PX         0.00000   0.00000   0.00000   0.00001  -0.00093
  43        2PY         0.00003   0.00019  -0.00071  -0.00715   0.17064
  44        2PZ         0.00000   0.00000   0.00000   0.00000   0.00000
  45        3S          0.01415   0.00155   0.00277   0.46316  -0.06160
  46        3PX         0.00001   0.00000   0.00000  -0.00001  -0.00137
  47        3PY        -0.00132   0.00015   0.00261  -0.00258   0.24773
  48        3PZ         0.00000   0.00000   0.00000   0.00000   0.00000
  49        4S         -0.00019  -0.00828  -0.02435   0.28924  -0.00114
  50        4PX        -0.00001  -0.00006  -0.00002   0.00009  -0.00020
  51        4PY         0.00448   0.01003   0.01190  -0.02213   0.04061
  52        4PZ         0.00000   0.00000   0.00000   0.00000   0.00000
  53        5S          0.01493  -0.00553   0.00951  -0.15652   0.03127
  54        5PX        -0.00003   0.00000   0.00000   0.00017   0.00017
  55        5PY         0.00763   0.00108   0.00205  -0.04893  -0.02377
  56        5PZ         0.00000   0.00000   0.00000   0.00000   0.00000
  57        6D 0       -0.00031  -0.00019  -0.00026  -0.00674   0.00107
  58        6D+1        0.00000   0.00000   0.00000   0.00000   0.00000
  59        6D-1        0.00000   0.00000   0.00000   0.00000   0.00000
  60        6D+2       -0.00037  -0.00031  -0.00026  -0.01143   0.00178
  61        6D-2        0.00000   0.00000   0.00000  -0.00013   0.00001
  62        7D 0       -0.00082   0.00189   0.00404  -0.01359  -0.00774
  63        7D+1        0.00000   0.00000   0.00000   0.00000   0.00000
  64        7D-1        0.00000   0.00000   0.00000   0.00000   0.00000
  65        7D+2       -0.00209   0.00320   0.00589  -0.01834  -0.01176
  66        7D-2       -0.00003   0.00004   0.00003  -0.00025  -0.00014
  67 5   N  1S          0.00166   0.55772   0.00000  -0.05400  -0.07865
  68        2S          0.00144   0.46607  -0.00024  -0.08525  -0.12484
  69        2PX         0.00000   0.00001   0.00000   0.00033   0.00035
  70        2PY        -0.00043  -0.00162   0.00024  -0.05619  -0.05612
  71        2PZ         0.00000   0.00000   0.00000   0.00000   0.00000
  72        3S          0.00033   0.01379   0.00199   0.23436   0.35570
  73        3PX        -0.00001   0.00001   0.00002   0.00049   0.00052
  74        3PY         0.00142  -0.00115  -0.00237  -0.08415  -0.08480
  75        3PZ         0.00000   0.00000   0.00000   0.00000   0.00000
  76        4S         -0.00616  -0.01161  -0.00061   0.14677   0.26588
  77        4PX        -0.00003  -0.00002  -0.00001   0.00023   0.00029
  78        4PY         0.00360   0.00349   0.00022  -0.03616  -0.04825
  79        4PZ         0.00000   0.00000   0.00000   0.00000   0.00000
  80        5S         -0.01427   0.00604  -0.00622   0.10062  -0.00920
  81        5PX        -0.00002   0.00001  -0.00001   0.00017  -0.00009
  82        5PY         0.00329  -0.00256   0.00186  -0.02335   0.01319
  83        5PZ         0.00000   0.00000   0.00000   0.00000   0.00000
  84        6D 0       -0.00003  -0.00027  -0.00010  -0.00456  -0.00410
  85        6D+1        0.00000   0.00000   0.00000   0.00000   0.00000
  86        6D-1        0.00000   0.00000   0.00000   0.00000   0.00000
  87        6D+2       -0.00008  -0.00038  -0.00021  -0.00680  -0.00547
  88        6D-2        0.00000   0.00000   0.00000  -0.00008  -0.00006
  89        7D 0        0.00080   0.00022  -0.00042  -0.00909  -0.00798
  90        7D+1        0.00000   0.00000   0.00000   0.00000   0.00000
  91        7D-1        0.00000   0.00000   0.00000   0.00000   0.00000
  92        7D+2        0.00152   0.00028  -0.00053  -0.01259  -0.00962
  93        7D-2        0.00002   0.00000  -0.00001  -0.00016  -0.00011
                           6         7         8         9        10
                           O         O         O         O         O
     Eigenvalues --    -0.60371  -0.53211  -0.45978  -0.45115  -0.36290
   1 1   C  1S         -0.06332  -0.00005  -0.00715   0.00000  -0.00007
   2        2S         -0.10027  -0.00007  -0.01186   0.00000  -0.00010
   3        2PX         0.00113   0.18675  -0.00013   0.00000  -0.09713
   4        2PY        -0.15721   0.00092   0.08553   0.00000  -0.00085
   5        2PZ         0.00000   0.00000   0.00000   0.12055   0.00000
   6        3S          0.25841   0.00033   0.04548   0.00000   0.00030
   7        3PX         0.00149   0.26086  -0.00014   0.00000  -0.12231
   8        3PY        -0.21155   0.00146   0.12223   0.00000  -0.00104
   9        3PZ         0.00000   0.00000   0.00000   0.19025   0.00000
  10        4S          0.23821  -0.00167   0.01308   0.00000  -0.00152
  11        4PX         0.00076   0.12109  -0.00024   0.00000  -0.11321
  12        4PY        -0.09307   0.00065   0.05366   0.00000  -0.00095
  13        4PZ         0.00000   0.00000   0.00000   0.12107   0.00000
  14        5S          0.02800  -0.00062  -0.00170   0.00000  -0.00040
  15        5PX         0.00012   0.01851  -0.00001   0.00000  -0.01913
  16        5PY        -0.00480  -0.00013  -0.00151   0.00000  -0.00026
  17        5PZ         0.00000   0.00000   0.00000   0.01487   0.00000
  18        6D 0       -0.00162   0.00001  -0.00248   0.00000   0.00001
  19        6D+1        0.00000   0.00000   0.00000  -0.00009   0.00000
  20        6D-1        0.00000   0.00000   0.00000   0.01618   0.00000
  21        6D+2        0.01522  -0.00026  -0.00831   0.00000   0.00002
  22        6D-2        0.00001   0.00117  -0.00001   0.00000   0.01825
  23        7D 0        0.00059   0.00030  -0.00245   0.00000   0.00031
  24        7D+1        0.00000   0.00000   0.00000  -0.00024   0.00000
  25        7D-1        0.00000   0.00000   0.00000   0.02586   0.00000
  26        7D+2        0.00444  -0.00041   0.00129   0.00000  -0.00049
  27        7D-2        0.00016   0.03161   0.00014   0.00000   0.04508
  28 2   H  1S          0.12062   0.11624  -0.02867   0.00000  -0.09517
  29        2S          0.16580   0.18703  -0.04881   0.00000  -0.13910
  30        3S          0.01928   0.02523  -0.00645   0.00000  -0.07373
  31        4PX        -0.02047  -0.01415   0.00479   0.00000   0.00587
  32        4PY         0.00589   0.01111  -0.00018   0.00000  -0.01043
  33        4PZ         0.00000   0.00000   0.00000   0.00893   0.00000
  34 3   H  1S          0.11895  -0.11724  -0.02835   0.00000   0.09614
  35        2S          0.16337  -0.18718  -0.04861   0.00000   0.14193
  36        3S          0.01929  -0.02609  -0.00654   0.00000   0.07382
  37        4PX         0.02028  -0.01422  -0.00476   0.00000   0.00625
  38        4PY         0.00558  -0.01084  -0.00009   0.00000   0.01054
  39        4PZ         0.00000   0.00000   0.00000   0.00886   0.00000
  40 4   N  1S          0.04438  -0.00032   0.03019   0.00000   0.00015
  41        2S          0.07218  -0.00053   0.04891   0.00000   0.00026
  42        2PX        -0.00044   0.14044   0.00167   0.00000   0.17979
  43        2PY         0.06033   0.00071  -0.14591   0.00000   0.00176
  44        2PZ         0.00000   0.00000   0.00000   0.22358   0.00000
  45        3S         -0.21892   0.00165  -0.14432   0.00000  -0.00087
  46        3PX        -0.00068   0.21517   0.00256   0.00000   0.27751
  47        3PY         0.08669   0.00104  -0.21909   0.00000   0.00272
  48        3PZ         0.00000   0.00000   0.00000   0.34850   0.00000
  49        4S         -0.18121   0.00194  -0.23104   0.00000  -0.00015
  50        4PX        -0.00022   0.13311   0.00171   0.00000   0.22240
  51        4PY         0.00817   0.00037  -0.12889   0.00000   0.00142
  52        4PZ         0.00000   0.00000   0.00000   0.23916   0.00000
  53        5S          0.12942  -0.00293   0.12018   0.00000  -0.00180
  54        5PX        -0.00047  -0.00526  -0.00025   0.00000   0.05962
  55        5PY         0.07819  -0.00254   0.06448   0.00000  -0.00155
  56        5PZ         0.00000   0.00000   0.00000  -0.00393   0.00000
  57        6D 0        0.00146   0.00001  -0.00171   0.00000   0.00000
  58        6D+1        0.00000   0.00000   0.00000   0.00002   0.00000
  59        6D-1        0.00000   0.00000   0.00000  -0.00360   0.00000
  60        6D+2        0.00265   0.00007  -0.00292   0.00000  -0.00007
  61        6D-2        0.00004  -0.00652  -0.00005   0.00000   0.00640
  62        7D 0       -0.00323   0.00001   0.00686   0.00000  -0.00012
  63        7D+1        0.00000   0.00000   0.00000   0.00003   0.00000
  64        7D-1        0.00000   0.00000   0.00000  -0.00700   0.00000
  65        7D+2       -0.00438   0.00009   0.00731   0.00000  -0.00047
  66        7D-2        0.00000  -0.00764   0.00008   0.00000   0.03807
  67 5   N  1S         -0.03708   0.00032  -0.07491   0.00000   0.00007
  68        2S         -0.05946   0.00051  -0.12124   0.00000   0.00012
  69        2PX        -0.00011   0.04661  -0.00072   0.00000   0.16583
  70        2PY         0.01643  -0.00010   0.18388   0.00000   0.00043
  71        2PZ         0.00000   0.00000   0.00000   0.11220   0.00000
  72        3S          0.17431  -0.00151   0.35600   0.00000  -0.00031
  73        3PX        -0.00016   0.07415  -0.00099   0.00000   0.25349
  74        3PY         0.02255  -0.00010   0.26606   0.00000   0.00070
  75        3PZ         0.00000   0.00000   0.00000   0.17325   0.00000
  76        4S          0.18391  -0.00148   0.46613   0.00000  -0.00049
  77        4PX        -0.00001   0.04899  -0.00047   0.00000   0.20335
  78        4PY         0.00237  -0.00013   0.14287   0.00000   0.00062
  79        4PZ         0.00000   0.00000   0.00000   0.12438   0.00000
  80        5S         -0.15299   0.00441  -0.09019   0.00000   0.00291
  81        5PX        -0.00030   0.00156  -0.00031   0.00000   0.00850
  82        5PY         0.04629  -0.00116   0.05086   0.00000  -0.00074
  83        5PZ         0.00000   0.00000   0.00000   0.01298   0.00000
  84        6D 0        0.00025  -0.00001   0.00514   0.00000  -0.00002
  85        6D+1        0.00000   0.00000   0.00000   0.00005   0.00000
  86        6D-1        0.00000   0.00000   0.00000  -0.00798   0.00000
  87        6D+2        0.00135   0.00003   0.01088   0.00000   0.00008
  88        6D-2        0.00002  -0.00431   0.00010   0.00000  -0.00909
  89        7D 0        0.00017  -0.00002   0.00561   0.00000   0.00000
  90        7D+1        0.00000   0.00000   0.00000   0.00017   0.00000
  91        7D-1        0.00000   0.00000   0.00000  -0.02949   0.00000
  92        7D+2        0.00231   0.00013   0.01545   0.00000   0.00031
  93        7D-2        0.00004  -0.01615   0.00009   0.00000  -0.02859
                          11        12        13        14        15
                           O         V         V         V         V
     Eigenvalues --    -0.24781  -0.09705  -0.01971   0.00846   0.04807
   1 1   C  1S          0.00000   0.00014   0.00000  -0.04011   0.00221
   2        2S          0.00000   0.00023   0.00000  -0.06700   0.00359
   3        2PX         0.00000   0.00011   0.00000  -0.00006  -0.07037
   4        2PY         0.00000   0.00011   0.00000  -0.02151   0.01484
   5        2PZ        -0.16555   0.00000   0.14398   0.00000   0.00000
   6        3S          0.00000  -0.00068   0.00000   0.24280  -0.00254
   7        3PX         0.00000  -0.00351   0.00000   0.00038  -0.14674
   8        3PY         0.00000   0.00008   0.00000  -0.10604   0.02947
   9        3PZ        -0.24990   0.00000   0.22509   0.00000   0.00000
  10        4S          0.00000  -0.00035   0.00000  -0.80436  -0.15594
  11        4PX         0.00000  -0.04166   0.00000   0.00276  -0.02378
  12        4PY         0.00000   0.00080   0.00000  -0.70211  -0.05134
  13        4PZ        -0.26810   0.00000   0.41941   0.00000   0.00000
  14        5S          0.00000  -0.00126   0.00000  -3.40518  -0.78053
  15        5PX         0.00000   0.08490   0.00000   0.00004   1.61443
  16        5PY         0.00000   0.00002   0.00000  -0.28751  -0.92381
  17        5PZ        -0.05803   0.00000   0.56633   0.00000   0.00000
  18        6D 0        0.00000  -0.00003   0.00000  -0.00016  -0.00144
  19        6D+1        0.00003   0.00000   0.00009   0.00000   0.00000
  20        6D-1       -0.00467   0.00000  -0.01531   0.00000   0.00000
  21        6D+2        0.00000   0.00009   0.00000  -0.00183  -0.00438
  22        6D-2        0.00000  -0.02215   0.00000  -0.00001   0.00262
  23        7D 0        0.00000  -0.00019   0.00000   0.03727   0.00372
  24        7D+1        0.00000   0.00000   0.00035   0.00000   0.00000
  25        7D-1        0.00540   0.00000  -0.05553   0.00000   0.00000
  26        7D+2        0.00000   0.00030   0.00000   0.06864  -0.02056
  27        7D-2        0.00000  -0.04547   0.00000   0.00104   0.00471
  28 2   H  1S          0.00000   0.06082   0.00000   0.00226  -0.03133
  29        2S          0.00000   0.12408   0.00000  -0.02229   0.05072
  30        3S          0.00000   0.19328   0.00000  -0.26394  -0.54681
  31        4PX         0.00000  -0.00129   0.00000  -0.01701   0.00756
  32        4PY         0.00000  -0.00181   0.00000   0.00756  -0.00828
  33        4PZ        -0.01527   0.00000   0.02282   0.00000   0.00000
  34 3   H  1S          0.00000  -0.06095   0.00000   0.00208   0.02035
  35        2S          0.00000  -0.12474   0.00000  -0.02230   0.00833
  36        3S          0.00000  -0.19248   0.00000  -0.26610   0.30420
  37        4PX         0.00000  -0.00152   0.00000   0.01678   0.01233
  38        4PY         0.00000   0.00185   0.00000   0.00752   0.00209
  39        4PZ        -0.01529   0.00000   0.02273   0.00000   0.00000
  40 4   N  1S          0.00000  -0.00019   0.00000   0.00450  -0.00558
  41        2S          0.00000  -0.00031   0.00000   0.00742  -0.00966
  42        2PX         0.00000  -0.19276   0.00000   0.00002   0.01727
  43        2PY         0.00000  -0.00151   0.00000  -0.00156  -0.01423
  44        2PZ        -0.02470   0.00000  -0.20904   0.00000   0.00000
  45        3S          0.00000   0.00105   0.00000  -0.03088   0.03959
  46        3PX         0.00000  -0.29798   0.00000   0.00009   0.01260
  47        3PY         0.00000  -0.00232   0.00000  -0.01279  -0.01426
  48        3PZ        -0.03852   0.00000  -0.32266   0.00000   0.00000
  49        4S          0.00000   0.00062   0.00000   0.49254   0.04532
  50        4PX         0.00000  -0.30286   0.00000   0.00265   0.10607
  51        4PY         0.00000  -0.00185   0.00000  -0.48880  -0.04019
  52        4PZ        -0.02751   0.00000  -0.37832   0.00000   0.00000
  53        5S          0.00000   0.00553   0.00000  -1.29554   0.95948
  54        5PX         0.00000  -0.20308   0.00000   0.01923  -0.72642
  55        5PY         0.00000   0.00153   0.00000  -3.10278  -0.13372
  56        5PZ         0.03122   0.00000  -0.50142   0.00000   0.00000
  57        6D 0        0.00000   0.00001   0.00000  -0.00257  -0.00102
  58        6D+1       -0.00009   0.00000   0.00001   0.00000   0.00000
  59        6D-1        0.01521   0.00000  -0.00020   0.00000   0.00000
  60        6D+2        0.00000  -0.00012   0.00000  -0.00486  -0.00232
  61        6D-2        0.00000   0.01099   0.00000  -0.00006   0.00105
  62        7D 0        0.00000   0.00005   0.00000  -0.03071  -0.00595
  63        7D+1       -0.00036   0.00000   0.00000   0.00000   0.00000
  64        7D-1        0.06430   0.00000  -0.00346   0.00000   0.00000
  65        7D+2        0.00000  -0.00043   0.00000  -0.05721  -0.00918
  66        7D-2        0.00000   0.03854   0.00000  -0.00058   0.00329
  67 5   N  1S          0.00000   0.00002   0.00000  -0.01557  -0.00851
  68        2S          0.00000   0.00003   0.00000  -0.02526  -0.01429
  69        2PX         0.00000   0.23393   0.00000   0.00012  -0.04559
  70        2PY         0.00000   0.00167   0.00000  -0.03172   0.00132
  71        2PZ         0.23795   0.00000   0.13496   0.00000   0.00000
  72        3S          0.00000  -0.00012   0.00000   0.07767   0.05204
  73        3PX         0.00000   0.35211   0.00000   0.00014  -0.07092
  74        3PY         0.00000   0.00251   0.00000  -0.04138  -0.00515
  75        3PZ         0.35251   0.00000   0.19909   0.00000   0.00000
  76        4S          0.00000  -0.00020   0.00000   0.29586   0.06175
  77        4PX         0.00000   0.38405   0.00000   0.00067  -0.08665
  78        4PY         0.00000   0.00275   0.00000  -0.14257   0.03431
  79        4PZ         0.33078   0.00000   0.25258   0.00000   0.00000
  80        5S          0.00000  -0.00519   0.00000   4.52947   0.11650
  81        5PX         0.00000   0.20409   0.00000   0.00695   0.20891
  82        5PY         0.00000   0.00277   0.00000  -1.19428  -0.08698
  83        5PZ         0.06642   0.00000   0.27035   0.00000   0.00000
  84        6D 0        0.00000   0.00000   0.00000  -0.00015  -0.00053
  85        6D+1        0.00003   0.00000  -0.00003   0.00000   0.00000
  86        6D-1       -0.00518   0.00000   0.00548   0.00000   0.00000
  87        6D+2        0.00000  -0.00001   0.00000   0.00027  -0.00052
  88        6D-2        0.00000   0.00169   0.00000   0.00000   0.00001
  89        7D 0        0.00000   0.00000   0.00000  -0.00100   0.00049
  90        7D+1        0.00006   0.00000  -0.00009   0.00000   0.00000
  91        7D-1       -0.01024   0.00000   0.01589   0.00000   0.00000
  92        7D+2        0.00000  -0.00010   0.00000  -0.00286  -0.00029
  93        7D-2        0.00000   0.00753   0.00000  -0.00003   0.00026
                          16        17        18        19        20
                           V         V         V         V         V
     Eigenvalues --     0.04823   0.07647   0.10344   0.13857   0.14362
   1 1   C  1S          0.00425   0.00000   0.01086  -0.04346   0.00210
   2        2S          0.00687   0.00000   0.01806  -0.06981   0.00338
   3        2PX         0.03625   0.00000  -0.00083   0.00216   0.06264
   4        2PY         0.02843   0.00000  -0.06152  -0.05781   0.00289
   5        2PZ         0.00000  -0.14473   0.00000   0.00000   0.00000
   6        3S         -0.00466   0.00000  -0.05143   0.15727  -0.00732
   7        3PX         0.07589   0.00000  -0.00130   0.00253   0.07193
   8        3PY         0.05790   0.00000  -0.09594  -0.08675   0.00418
   9        3PZ         0.00000  -0.21163   0.00000   0.00000   0.00000
  10        4S         -0.28476   0.00000  -0.51757   0.83228  -0.05409
  11        4PX         0.01210   0.00000  -0.00276   0.01648   0.49634
  12        4PY        -0.08426   0.00000  -0.62127  -1.16547   0.04967
  13        4PZ         0.00000  -0.50037   0.00000   0.00000   0.00000
  14        5S         -1.46817   0.00000  -1.43242   1.03155  -0.06646
  15        5PX        -0.84185   0.00000   0.00298  -0.01952  -0.29303
  16        5PY        -1.75815   0.00000  -0.87300  -0.66614   0.01888
  17        5PZ         0.00000   1.44474   0.00000   0.00000   0.00000
  18        6D 0       -0.00267   0.00000  -0.00690   0.01449  -0.00071
  19        6D+1        0.00000  -0.00002   0.00000   0.00000   0.00000
  20        6D-1        0.00000   0.00289   0.00000   0.00000   0.00000
  21        6D+2       -0.00839   0.00000  -0.00853  -0.01353   0.00067
  22        6D-2       -0.00149   0.00000  -0.00011   0.00009   0.00286
  23        7D 0        0.00639   0.00000  -0.00734   0.07780  -0.00307
  24        7D+1        0.00000   0.00009   0.00000   0.00000   0.00000
  25        7D-1        0.00000  -0.00216   0.00000   0.00000   0.00000
  26        7D+2       -0.04187   0.00000  -0.00110   0.03592  -0.00166
  27        7D-2       -0.00211   0.00000  -0.00046   0.00397   0.05721
  28 2   H  1S          0.00314   0.00000   0.01017  -0.08474  -0.00405
  29        2S          0.04616   0.00000  -0.03102  -0.14071   0.00267
  30        3S         -0.00419   0.00000   0.20831  -2.60061  -0.59708
  31        4PX        -0.00976   0.00000  -0.00426  -0.02246  -0.01265
  32        4PY        -0.00318   0.00000  -0.01130  -0.00253   0.01062
  33        4PZ         0.00000  -0.00672   0.00000   0.00000   0.00000
  34 3   H  1S         -0.02451   0.00000   0.00943  -0.08420   0.01188
  35        2S          0.06677   0.00000  -0.03210  -0.14310   0.01244
  36        3S         -0.45287   0.00000   0.19558  -2.55085   0.84415
  37        4PX        -0.00063   0.00000   0.00431   0.02083  -0.01460
  38        4PY        -0.00835   0.00000  -0.01112  -0.00365  -0.01004
  39        4PZ         0.00000  -0.00662   0.00000   0.00000   0.00000
  40 4   N  1S         -0.01080   0.00000  -0.03555   0.01390  -0.00074
  41        2S         -0.01868   0.00000  -0.05975   0.02418  -0.00128
  42        2PX        -0.00834   0.00000   0.00056  -0.00347  -0.06092
  43        2PY        -0.02732   0.00000   0.03711   0.00238  -0.00011
  44        2PZ         0.00000   0.06892   0.00000   0.00000   0.00000
  45        3S          0.07645   0.00000   0.21807  -0.09846   0.00503
  46        3PX        -0.00570   0.00000   0.00087  -0.00445  -0.07289
  47        3PY        -0.02717   0.00000   0.05525   0.00455  -0.00014
  48        3PZ         0.00000   0.08305   0.00000   0.00000   0.00000
  49        4S          0.07452   0.00000   0.25466   0.34418  -0.00986
  50        4PX        -0.05497   0.00000   0.00588  -0.01142  -0.28721
  51        4PY        -0.07007   0.00000  -0.50878  -0.42852   0.01270
  52        4PZ         0.00000   0.29926   0.00000   0.00000   0.00000
  53        5S          1.80592   0.00000   9.78249  -3.50653   0.21387
  54        5PX         0.38584   0.00000  -0.01578   0.03664   0.31247
  55        5PY        -0.24434   0.00000   3.15025  -3.30131   0.16088
  56        5PZ         0.00000  -0.65529   0.00000   0.00000   0.00000
  57        6D 0       -0.00189   0.00000   0.00383   0.00116  -0.00004
  58        6D+1        0.00000  -0.00003   0.00000   0.00000   0.00000
  59        6D-1        0.00000   0.00442   0.00000   0.00000   0.00000
  60        6D+2       -0.00434   0.00000   0.00762  -0.00357   0.00032
  61        6D-2       -0.00062   0.00000   0.00016  -0.00042  -0.00890
  62        7D 0       -0.01074   0.00000   0.03945   0.01528  -0.00079
  63        7D+1        0.00000  -0.00005   0.00000   0.00000   0.00000
  64        7D-1        0.00000   0.00788   0.00000   0.00000   0.00000
  65        7D+2       -0.01632   0.00000   0.06797  -0.02849   0.00137
  66        7D-2       -0.00159   0.00000   0.00070   0.00031   0.01447
  67 5   N  1S         -0.01596   0.00000   0.03809   0.00121   0.00003
  68        2S         -0.02681   0.00000   0.06295   0.00179   0.00007
  69        2PX         0.02381   0.00000  -0.00059  -0.00402  -0.08968
  70        2PY         0.00367   0.00000   0.05126  -0.04054   0.00165
  71        2PZ         0.00000  -0.07838   0.00000   0.00000   0.00000
  72        3S          0.09756   0.00000  -0.22213  -0.00284  -0.00053
  73        3PX         0.03707   0.00000  -0.00088  -0.00398  -0.09016
  74        3PY        -0.00813   0.00000   0.07527  -0.04711   0.00204
  75        3PZ         0.00000  -0.10957   0.00000   0.00000   0.00000
  76        4S          0.11541   0.00000  -0.02651   0.07207  -0.00076
  77        4PX         0.04495   0.00000   0.00090  -0.01597  -0.36549
  78        4PY         0.06724   0.00000  -0.26523  -0.25183   0.00831
  79        4PZ         0.00000  -0.19938   0.00000   0.00000   0.00000
  80        5S          0.21733   0.00000  -7.59979   5.77511  -0.29620
  81        5PX        -0.10979   0.00000  -0.02312   0.05945   1.08331
  82        5PY        -0.16485   0.00000   3.49161  -1.36986   0.08465
  83        5PZ         0.00000   0.28125   0.00000   0.00000   0.00000
  84        6D 0       -0.00101   0.00000  -0.00032   0.00130  -0.00007
  85        6D+1        0.00000   0.00001   0.00000   0.00000   0.00000
  86        6D-1        0.00000  -0.00239   0.00000   0.00000   0.00000
  87        6D+2       -0.00100   0.00000  -0.00192   0.00193  -0.00017
  88        6D-2       -0.00004   0.00000  -0.00006   0.00027   0.00508
  89        7D 0        0.00086   0.00000  -0.03766   0.00415  -0.00040
  90        7D+1        0.00000   0.00000   0.00000   0.00000   0.00000
  91        7D-1        0.00000   0.00026   0.00000   0.00000   0.00000
  92        7D+2       -0.00077   0.00000  -0.06620  -0.00608  -0.00029
  93        7D-2       -0.00018   0.00000  -0.00089   0.00113   0.02479
                          21        22        23        24        25
                           V         V         V         V         V
     Eigenvalues --     0.15336   0.17499   0.21397   0.21657   0.22337
   1 1   C  1S          0.00000   0.04069   0.00044  -0.01358   0.00000
   2        2S          0.00000   0.06972   0.00069  -0.02078   0.00000
   3        2PX         0.00000  -0.00065  -0.02240  -0.00610   0.00000
   4        2PY         0.00000  -0.10753  -0.00006  -0.00886   0.00000
   5        2PZ         0.01935   0.00000   0.00000   0.00000  -0.04508
   6        3S          0.00000  -0.18450  -0.00021  -0.01820   0.00000
   7        3PX         0.00000  -0.00007  -0.05609  -0.00788   0.00000
   8        3PY         0.00000  -0.27310   0.00038  -0.02309   0.00000
   9        3PZ         0.04223   0.00000   0.00000   0.00000  -0.02710
  10        4S          0.00000  -2.75535  -0.04024   1.99169   0.00000
  11        4PX         0.00000  -0.00233  -0.24747  -0.05441   0.00000
  12        4PY         0.00000  -1.36371  -0.00280   0.46110   0.00000
  13        4PZ         0.09129   0.00000   0.00000   0.00000  -0.28476
  14        5S          0.00000  -4.51706  -0.02487   1.52007   0.00000
  15        5PX         0.00000   0.00110  -1.23028  -0.09595   0.00000
  16        5PY         0.00000  -1.19253   0.00021  -0.02532   0.00000
  17        5PZ        -0.77201   0.00000   0.00000   0.00000  -1.46821
  18        6D 0        0.00000   0.00675   0.00013  -0.01027   0.00000
  19        6D+1        0.00000   0.00000   0.00000   0.00000   0.00004
  20        6D-1        0.00007   0.00000   0.00000   0.00000  -0.00607
  21        6D+2        0.00000  -0.00172   0.00023  -0.00405   0.00000
  22        6D-2        0.00000  -0.00002  -0.00476  -0.00056   0.00000
  23        7D 0        0.00000   0.07022   0.00155  -0.10104   0.00000
  24        7D+1       -0.00033   0.00000   0.00000   0.00000  -0.00033
  25        7D-1        0.04047   0.00000   0.00000   0.00000   0.02598
  26        7D+2        0.00000   0.07485   0.00064  -0.05168   0.00000
  27        7D-2        0.00000   0.00182   0.12425   0.00037   0.00000
  28 2   H  1S          0.00000  -0.00930  -0.00904   0.01980   0.00000
  29        2S          0.00000   0.04581   0.15742  -0.13783   0.00000
  30        3S          0.00000  -0.79171  -0.30676   1.14239   0.00000
  31        4PX         0.00000  -0.00820  -0.01348   0.00284   0.00000
  32        4PY         0.00000  -0.00808   0.01431  -0.01754   0.00000
  33        4PZ        -0.00119   0.00000   0.00000   0.00000   0.00252
  34 3   H  1S          0.00000  -0.01033   0.00859   0.01776   0.00000
  35        2S          0.00000   0.04210  -0.15241  -0.14840   0.00000
  36        3S          0.00000  -0.81235   0.30474   0.98854   0.00000
  37        4PX         0.00000   0.00762  -0.01338  -0.00190   0.00000
  38        4PY         0.00000  -0.00751  -0.01335  -0.01647   0.00000
  39        4PZ        -0.00116   0.00000   0.00000   0.00000   0.00271
  40 4   N  1S          0.00000  -0.03703  -0.00032   0.00751   0.00000
  41        2S          0.00000  -0.06099  -0.00054   0.01221   0.00000
  42        2PX         0.00000   0.00026  -0.10121   0.00008   0.00000
  43        2PY         0.00000   0.05366   0.00105  -0.07366   0.00000
  44        2PZ        -0.03594   0.00000   0.00000   0.00000  -0.09699
  45        3S          0.00000   0.13287   0.00208  -0.04609   0.00000
  46        3PX         0.00000   0.00027  -0.11986   0.00091   0.00000
  47        3PY         0.00000   0.07105   0.00099  -0.07961   0.00000
  48        3PZ        -0.03708   0.00000   0.00000   0.00000  -0.10101
  49        4S          0.00000   1.77582   0.00925  -0.38054   0.00000
  50        4PX         0.00000   0.00513  -0.54129  -0.00445   0.00000
  51        4PY         0.00000  -0.51388  -0.00606   0.38937   0.00000
  52        4PZ        -0.16228   0.00000   0.00000   0.00000  -0.50041
  53        5S          0.00000  -4.83563   0.04701  -1.61306   0.00000
  54        5PX         0.00000   0.03977   3.67816   0.08863   0.00000
  55        5PY         0.00000  -7.05337  -0.04214   4.97101   0.00000
  56        5PZ         0.32376   0.00000   0.00000   0.00000   3.74191
  57        6D 0        0.00000   0.01813   0.00003  -0.00158   0.00000
  58        6D+1        0.00004   0.00000   0.00000   0.00000  -0.00002
  59        6D-1       -0.00675   0.00000   0.00000   0.00000   0.00383
  60        6D+2        0.00000   0.02958   0.00002   0.00091   0.00000
  61        6D-2        0.00000   0.00038   0.00220   0.00033   0.00000
  62        7D 0        0.00000  -0.00437   0.00046  -0.02807   0.00000
  63        7D+1       -0.00009   0.00000   0.00000   0.00000  -0.00007
  64        7D-1        0.01515   0.00000   0.00000   0.00000   0.00940
  65        7D+2        0.00000  -0.01464   0.00069  -0.03945   0.00000
  66        7D-2        0.00000   0.00024   0.02457   0.00040   0.00000
  67 5   N  1S          0.00000   0.03370  -0.00016   0.00994   0.00000
  68        2S          0.00000   0.05582  -0.00020   0.01353   0.00000
  69        2PX         0.00000  -0.00162   0.03742  -0.00176   0.00000
  70        2PY         0.00000   0.19215   0.00170  -0.04705   0.00000
  71        2PZ        -0.10819   0.00000   0.00000   0.00000   0.01977
  72        3S          0.00000  -0.16273  -0.00074   0.02786   0.00000
  73        3PX         0.00000  -0.00246   0.02915  -0.00244   0.00000
  74        3PY         0.00000   0.30672   0.00188  -0.04506   0.00000
  75        3PZ        -0.10635   0.00000   0.00000   0.00000   0.00895
  76        4S          0.00000  -0.62480   0.01925  -1.09729   0.00000
  77        4PX         0.00000  -0.00471   0.21989  -0.00751   0.00000
  78        4PY         0.00000   0.50851   0.00173   0.15139   0.00000
  79        4PZ        -0.45058   0.00000   0.00000   0.00000   0.15983
  80        5S          0.00000  12.23127  -0.00884  -2.10998   0.00000
  81        5PX         0.00000   0.02703  -2.14280  -0.02851   0.00000
  82        5PY         0.00000  -3.92618   0.01630  -0.91577   0.00000
  83        5PZ         1.28321   0.00000   0.00000   0.00000  -2.00610
  84        6D 0        0.00000   0.00099  -0.00011   0.00460   0.00000
  85        6D+1       -0.00002   0.00000   0.00000   0.00000   0.00000
  86        6D-1        0.00398   0.00000   0.00000   0.00000  -0.00012
  87        6D+2        0.00000   0.00071  -0.00017   0.00697   0.00000
  88        6D-2        0.00000  -0.00002  -0.00008  -0.00003   0.00000
  89        7D 0        0.00000   0.01226  -0.00057   0.02751   0.00000
  90        7D+1       -0.00016   0.00000   0.00000   0.00000   0.00011
  91        7D-1        0.02623   0.00000   0.00000   0.00000  -0.01893
  92        7D+2        0.00000   0.01647  -0.00089   0.06061   0.00000
  93        7D-2        0.00000   0.00023  -0.01561   0.00050   0.00000
                          26        27        28        29        30
                           V         V         V         V         V
     Eigenvalues --     0.22834   0.23299   0.28972   0.35645   0.50287
   1 1   C  1S          0.00085  -0.00013   0.02105   0.01001   0.04530
   2        2S          0.00167  -0.00431   0.03811   0.01742   0.08060
   3        2PX        -0.18293  -0.01440   0.00158   0.00004  -0.00819
   4        2PY        -0.00602   0.09757   0.09640   0.02638   0.05235
   5        2PZ         0.00000   0.00000   0.00000   0.00000   0.00000
   6        3S         -0.01005   0.11678  -0.08206  -0.03141  -0.19571
   7        3PX        -0.20413  -0.01525   0.00283  -0.00041  -0.03474
   8        3PY        -0.01196   0.17416  -0.14530  -0.16348   0.14909
   9        3PZ         0.00000   0.00000   0.00000   0.00000   0.00000
  10        4S          0.11647  -2.60823  -4.86676  -4.03433  -3.93335
  11        4PX        -1.58808  -0.12027   0.02221   0.01912  -0.15238
  12        4PY         0.00735  -0.21582  -2.19860  -3.84995  -2.27358
  13        4PZ         0.00000   0.00000   0.00000   0.00000   0.00000
  14        5S          0.47886  -6.47503  -2.85172  -0.93627  -1.39756
  15        5PX        -2.42105  -0.18515   0.02916   0.01780   0.07344
  16        5PY         0.22835  -2.41770   0.86159   0.07120  -1.04886
  17        5PZ         0.00000   0.00000   0.00000   0.00000   0.00000
  18        6D 0       -0.00033   0.00726  -0.00018  -0.01211  -0.03407
  19        6D+1        0.00000   0.00000   0.00000   0.00000   0.00000
  20        6D-1        0.00000   0.00000   0.00000   0.00000   0.00000
  21        6D+2       -0.00058   0.00704  -0.01389  -0.03593  -0.01017
  22        6D-2       -0.01170  -0.00078   0.00005  -0.00027  -0.00357
  23        7D 0       -0.00395   0.09019   0.16782   0.13425  -0.11019
  24        7D+1        0.00000   0.00000   0.00000   0.00000   0.00000
  25        7D-1        0.00000   0.00000   0.00000   0.00000   0.00000
  26        7D+2       -0.00311   0.06047   0.21839   0.27803   0.18507
  27        7D-2       -0.01253   0.00047   0.00494   0.00214   0.00943
  28 2   H  1S          0.02948  -0.00961  -0.01236  -0.02697   0.12308
  29        2S          0.03041   0.15978  -0.04305  -0.45588   1.38758
  30        3S          3.00883  -0.13280  -0.78680   0.65206  -3.24927
  31        4PX         0.02248   0.00296   0.00577   0.00138   0.00291
  32        4PY        -0.02397   0.02491  -0.02821  -0.04694  -0.00043
  33        4PZ         0.00000   0.00000   0.00000   0.00000   0.00000
  34 3   H  1S         -0.02778  -0.01284  -0.01254  -0.02931   0.10107
  35        2S         -0.04572   0.16091  -0.05215  -0.46660   1.05950
  36        3S         -2.99027  -0.62343  -0.70714   0.69717  -2.95454
  37        4PX         0.02251   0.00093  -0.00757  -0.00337  -0.01932
  38        4PY         0.02001   0.02824  -0.02867  -0.04613   0.00630
  39        4PZ         0.00000   0.00000   0.00000   0.00000   0.00000
  40 4   N  1S         -0.00483   0.05959  -0.01121   0.01131  -0.01298
  41        2S         -0.00792   0.09789  -0.01564   0.01936  -0.02168
  42        2PX         0.04860   0.00338  -0.00009   0.00088   0.01220
  43        2PY         0.00329  -0.02945  -0.05341  -0.12019  -0.09750
  44        2PZ         0.00000   0.00000   0.00000   0.00000   0.00000
  45        3S          0.02017  -0.24759  -0.07728  -0.09930   0.07649
  46        3PX         0.07408   0.00507  -0.00019   0.00167   0.02193
  47        3PY         0.00243  -0.03230  -0.14207  -0.22484  -0.15359
  48        3PZ         0.00000   0.00000   0.00000   0.00000   0.00000
  49        4S          0.14867  -1.74739   3.07835   2.17239   1.29039
  50        4PX         0.25553   0.02370   0.00943   0.01949   0.03890
  51        4PY         0.08082  -1.21877  -1.78368  -2.68660  -1.97663
  52        4PZ         0.00000   0.00000   0.00000   0.00000   0.00000
  53        5S         -0.37770   2.86208 -26.09078  27.19723  -0.01475
  54        5PX         1.19282   0.13038   0.07414  -0.05656   0.11388
  55        5PY         0.19760  -5.54197 -15.75257   9.56186  -5.91477
  56        5PZ         0.00000   0.00000   0.00000   0.00000   0.00000
  57        6D 0        0.00018  -0.00329  -0.00203  -0.00334  -0.00220
  58        6D+1        0.00000   0.00000   0.00000   0.00000   0.00000
  59        6D-1        0.00000   0.00000   0.00000   0.00000   0.00000
  60        6D+2        0.00030  -0.00909  -0.00447  -0.00312  -0.00256
  61        6D-2        0.00814   0.00047  -0.00016   0.00004   0.00198
  62        7D 0       -0.00084   0.01885  -0.08582  -0.01243  -0.00649
  63        7D+1        0.00000   0.00000   0.00000   0.00000   0.00000
  64        7D-1        0.00000   0.00000   0.00000   0.00000   0.00000
  65        7D+2       -0.00413   0.04905  -0.19540  -0.06809   0.04404
  66        7D-2        0.02426   0.00286  -0.00246  -0.00166   0.01069
  67 5   N  1S         -0.00039  -0.00373   0.00073  -0.02617  -0.00491
  68        2S         -0.00049  -0.00675   0.00194  -0.04066  -0.00676
  69        2PX        -0.07803  -0.00501   0.00136   0.00031  -0.00428
  70        2PY         0.00946  -0.13060  -0.08461  -0.03328  -0.01714
  71        2PZ         0.00000   0.00000   0.00000   0.00000   0.00000
  72        3S          0.00072   0.00036  -0.00041   0.05929  -0.03361
  73        3PX        -0.09541  -0.00583   0.00134   0.00087  -0.00581
  74        3PY         0.01666  -0.22884  -0.02022  -0.07852  -0.04383
  75        3PZ         0.00000   0.00000   0.00000   0.00000   0.00000
  76        4S         -0.01127   0.68892   0.11906   1.87736   1.21176
  77        4PX        -0.30979  -0.01659   0.00660   0.00324  -0.00906
  78        4PY         0.06887  -1.05837  -0.67518  -0.61538  -0.78064
  79        4PZ         0.00000   0.00000   0.00000   0.00000   0.00000
  80        5S         -0.36745   7.66372  31.84559 -26.18493   6.58447
  81        5PX         0.33717   0.03244   0.04847  -0.05192  -0.04465
  82        5PY         0.08691  -1.30662  -8.67254   8.04827  -1.07827
  83        5PZ         0.00000   0.00000   0.00000   0.00000   0.00000
  84        6D 0       -0.00068   0.00722   0.00274   0.00577   0.00360
  85        6D+1        0.00000   0.00000   0.00000   0.00000   0.00000
  86        6D-1        0.00000   0.00000   0.00000   0.00000   0.00000
  87        6D+2       -0.00111   0.01262   0.00443   0.01030   0.00763
  88        6D-2       -0.00332  -0.00008   0.00007   0.00009  -0.00064
  89        7D 0        0.00203  -0.03369   0.01575  -0.00662  -0.00661
  90        7D+1        0.00000   0.00000   0.00000   0.00000   0.00000
  91        7D-1        0.00000   0.00000   0.00000   0.00000   0.00000
  92        7D+2        0.00278  -0.05895   0.01866  -0.00190  -0.03901
  93        7D-2        0.00459  -0.00028   0.00037  -0.00018  -0.00920
                          31        32        33        34        35
                           V         V         V         V         V
     Eigenvalues --     0.51235   0.53846   0.55053   0.65795   0.66120
   1 1   C  1S          0.00496   0.00000   0.00000   0.00710  -0.00268
   2        2S          0.00889   0.00000   0.00000   0.00448  -0.00236
   3        2PX         0.07895   0.00000   0.00000  -0.07246  -0.24825
   4        2PY         0.00701   0.00000   0.00000  -0.25314   0.07405
   5        2PZ         0.00000  -0.23641   0.00092   0.00000   0.00000
   6        3S         -0.02515   0.00000   0.00000   0.25306  -0.06834
   7        3PX         0.33079   0.00000   0.00000  -0.21554  -0.73586
   8        3PY         0.01361   0.00000   0.00000  -0.20054   0.04973
   9        3PZ         0.00000  -0.87450   0.00298   0.00000   0.00000
  10        4S         -0.45168   0.00000   0.00000   0.69666  -0.28162
  11        4PX         1.69776   0.00000   0.00000   1.26436   4.27251
  12        4PY        -0.31445   0.00000   0.00000   3.33839  -1.03872
  13        4PZ         0.00000   1.83245  -0.00732   0.00000   0.00000
  14        5S         -0.13518   0.00000   0.00000  -0.73923   0.16250
  15        5PX        -0.55380   0.00000   0.00000   0.43834   1.50919
  16        5PY        -0.10245   0.00000   0.00000  -0.05282  -0.00827
  17        5PZ         0.00000  -0.47978   0.00078   0.00000   0.00000
  18        6D 0       -0.00378   0.00000   0.00000  -0.01063   0.00324
  19        6D+1        0.00000   0.00012   0.00422   0.00000   0.00000
  20        6D-1        0.00000  -0.01333   0.00007   0.00000   0.00000
  21        6D+2       -0.00120   0.00000   0.00000  -0.02681   0.00810
  22        6D-2        0.03005   0.00000   0.00000  -0.00261  -0.00826
  23        7D 0       -0.01643   0.00000   0.00000  -0.13227   0.03783
  24        7D+1        0.00000   0.00302   0.88408   0.00000   0.00000
  25        7D-1        0.00000  -0.10383   0.00326   0.00000   0.00000
  26        7D+2        0.02680   0.00000   0.00000  -0.92640   0.27585
  27        7D-2       -0.05822   0.00000   0.00000  -0.12864  -0.42269
  28 2   H  1S         -0.08584   0.00000   0.00000   0.00121   0.05982
  29        2S         -1.43838   0.00000   0.00000   0.25068  -0.81095
  30        3S          0.89038   0.00000   0.00000  -0.49183  -2.98609
  31        4PX         0.07423   0.00000   0.00000  -0.03706   0.12279
  32        4PY         0.02828   0.00000   0.00000   0.02691  -0.05130
  33        4PZ         0.00000   0.00346   0.03795   0.00000   0.00000
  34 3   H  1S          0.10924   0.00000   0.00000  -0.03135  -0.05277
  35        2S          1.67636   0.00000   0.00000   0.67105   0.52989
  36        3S         -1.56897   0.00000   0.00000   1.18321   2.75417
  37        4PX         0.07036   0.00000   0.00000   0.10030   0.08362
  38        4PY        -0.03061   0.00000   0.00000   0.04832   0.03026
  39        4PZ         0.00000   0.00236  -0.03852   0.00000   0.00000
  40 4   N  1S         -0.00167   0.00000   0.00000  -0.01317   0.00382
  41        2S         -0.00276   0.00000   0.00000  -0.02139   0.00628
  42        2PX        -0.10449   0.00000   0.00000   0.00194   0.00412
  43        2PY        -0.01009   0.00000   0.00000  -0.22009   0.06507
  44        2PZ         0.00000   0.03756  -0.00005   0.00000   0.00000
  45        3S          0.00739   0.00000   0.00000   0.14496  -0.04699
  46        3PX        -0.18454   0.00000   0.00000   0.01994   0.06795
  47        3PY        -0.01603   0.00000   0.00000  -0.35535   0.10709
  48        3PZ         0.00000   0.10097   0.00012   0.00000   0.00000
  49        4S          0.20838   0.00000   0.00000  -4.47662   1.40647
  50        4PX        -0.31802   0.00000   0.00000  -0.12573  -0.38587
  51        4PY        -0.24353   0.00000   0.00000   0.48856  -0.16491
  52        4PZ         0.00000  -0.27366   0.00193   0.00000   0.00000
  53        5S          0.21585   0.00000   0.00000 -10.75072   3.23384
  54        5PX        -0.88116   0.00000   0.00000  -0.57280  -2.04902
  55        5PY        -0.54120   0.00000   0.00000  -5.75055   1.64416
  56        5PZ         0.00000  -0.74885   0.00451   0.00000   0.00000
  57        6D 0       -0.00031   0.00000   0.00000   0.00677  -0.00203
  58        6D+1        0.00000  -0.00001   0.01110   0.00000   0.00000
  59        6D-1        0.00000   0.00719   0.00011   0.00000   0.00000
  60        6D+2        0.00009   0.00000   0.00000   0.00212  -0.00060
  61        6D-2       -0.01973   0.00000   0.00000  -0.00005   0.00094
  62        7D 0       -0.00313   0.00000   0.00000   0.21728  -0.07225
  63        7D+1        0.00000  -0.00012   0.17789   0.00000   0.00000
  64        7D-1        0.00000   0.10486   0.00013   0.00000   0.00000
  65        7D+2        0.00374   0.00000   0.00000   0.36922  -0.11514
  66        7D-2       -0.08381   0.00000   0.00000   0.03343   0.09125
  67 5   N  1S         -0.00049   0.00000   0.00000  -0.01084   0.00346
  68        2S         -0.00066   0.00000   0.00000  -0.01570   0.00511
  69        2PX         0.04175   0.00000   0.00000   0.00825   0.02727
  70        2PY        -0.00051   0.00000   0.00000  -0.01739   0.00366
  71        2PZ         0.00000  -0.03430  -0.00002   0.00000   0.00000
  72        3S         -0.00328   0.00000   0.00000  -0.09067   0.02610
  73        3PX         0.05527   0.00000   0.00000   0.01846   0.06557
  74        3PY        -0.00221   0.00000   0.00000  -0.00651  -0.00061
  75        3PZ         0.00000  -0.09504   0.00011   0.00000   0.00000
  76        4S          0.13238   0.00000   0.00000   1.48818  -0.45957
  77        4PX         0.14654   0.00000   0.00000   0.01118  -0.01191
  78        4PY        -0.07766   0.00000   0.00000  -1.70924   0.52920
  79        4PZ         0.00000   0.10109  -0.00025   0.00000   0.00000
  80        5S          0.47230   0.00000   0.00000  11.79989  -3.43735
  81        5PX         0.50997   0.00000   0.00000   0.22236   0.68597
  82        5PY        -0.05030   0.00000   0.00000  -2.65020   0.77080
  83        5PZ         0.00000   0.52571  -0.00271   0.00000   0.00000
  84        6D 0        0.00035   0.00000   0.00000   0.01220  -0.00374
  85        6D+1        0.00000   0.00000   0.00017   0.00000   0.00000
  86        6D-1        0.00000   0.00060   0.00000   0.00000   0.00000
  87        6D+2        0.00067   0.00000   0.00000   0.02227  -0.00679
  88        6D-2        0.00723   0.00000   0.00000   0.00025  -0.00042
  89        7D 0       -0.00056   0.00000   0.00000  -0.03624   0.01061
  90        7D+1        0.00000   0.00029   0.05320   0.00000   0.00000
  91        7D-1        0.00000  -0.02581   0.00007   0.00000   0.00000
  92        7D+2       -0.00461   0.00000   0.00000  -0.07189   0.02457
  93        7D-2        0.08097   0.00000   0.00000   0.00229   0.00513
                          36        37        38        39        40
                           V         V         V         V         V
     Eigenvalues --     0.75084   0.77132   0.77481   0.78138   0.80868
   1 1   C  1S         -0.03151  -0.00664   0.00044   0.00000   0.00000
   2        2S         -0.05773  -0.01097   0.00080   0.00000   0.00000
   3        2PX         0.00285  -0.00052   0.00083   0.00000   0.00000
   4        2PY        -0.07284   0.01954   0.00060   0.00000   0.00000
   5        2PZ         0.00000   0.00000   0.00000   0.06536   0.02709
   6        3S          0.41740   0.30673  -0.00575   0.00000   0.00000
   7        3PX         0.01119  -0.00047   0.05789   0.00000   0.00000
   8        3PY        -0.47555   0.19804   0.00333   0.00000   0.00000
   9        3PZ         0.00000   0.00000   0.00000   0.11353   0.17913
  10        4S         -0.71788  -2.17064   0.05668   0.00000   0.00000
  11        4PX        -0.05448   0.03338   0.50105   0.00000   0.00000
  12        4PY         0.11570   0.57093   0.01090   0.00000   0.00000
  13        4PZ         0.00000   0.00000   0.00000  -0.85910  -0.35990
  14        5S         -1.17566  -0.53286   0.02151   0.00000   0.00000
  15        5PX        -0.02051  -0.00283   0.79575   0.00000   0.00000
  16        5PY        -0.23183  -0.44701   0.00104   0.00000   0.00000
  17        5PZ         0.00000   0.00000   0.00000   0.26526  -0.48022
  18        6D 0        0.00807   0.00061  -0.00005   0.00000   0.00000
  19        6D+1        0.00000   0.00000   0.00000   0.00007   0.00006
  20        6D-1        0.00000   0.00000   0.00000  -0.01280  -0.00685
  21        6D+2        0.00807  -0.00346   0.00001   0.00000   0.00000
  22        6D-2        0.00013   0.00018  -0.00694   0.00000   0.00000
  23        7D 0       -0.35754   0.72908   0.00489   0.00000   0.00000
  24        7D+1        0.00000   0.00000   0.00000   0.00457   0.00276
  25        7D-1        0.00000   0.00000   0.00000  -0.94065  -0.62115
  26        7D+2        0.05103  -0.58432  -0.00146   0.00000   0.00000
  27        7D-2        0.00712   0.01406  -0.91704   0.00000   0.00000
  28 2   H  1S         -0.02931   0.01950   0.01149   0.00000   0.00000
  29        2S         -0.30207   1.31690  -0.71859   0.00000   0.00000
  30        3S          0.13388   0.20988  -0.27779   0.00000   0.00000
  31        4PX        -0.03106  -0.07250   0.07711   0.00000   0.00000
  32        4PY         0.00719   0.04102  -0.00100   0.00000   0.00000
  33        4PZ         0.00000   0.00000   0.00000   0.01929   0.03829
  34 3   H  1S         -0.02893   0.02035  -0.01036   0.00000   0.00000
  35        2S         -0.31798   1.32418   0.72671   0.00000   0.00000
  36        3S          0.05282   0.23102   0.27803   0.00000   0.00000
  37        4PX         0.02784   0.07267   0.07651   0.00000   0.00000
  38        4PY         0.00888   0.03906  -0.00274   0.00000   0.00000
  39        4PZ         0.00000   0.00000   0.00000   0.01838   0.03622
  40 4   N  1S          0.00434  -0.00665  -0.00009   0.00000   0.00000
  41        2S          0.00880  -0.01204  -0.00018   0.00000   0.00000
  42        2PX         0.00080   0.00105  -0.14550   0.00000   0.00000
  43        2PY        -0.09944  -0.02566  -0.00175   0.00000   0.00000
  44        2PZ         0.00000   0.00000   0.00000  -0.03173   0.14562
  45        3S         -0.23863   0.02555   0.00045   0.00000   0.00000
  46        3PX         0.00066   0.00229  -0.46817   0.00000   0.00000
  47        3PY        -0.13658   0.04547  -0.00286   0.00000   0.00000
  48        3PZ         0.00000   0.00000   0.00000  -0.11044   0.52982
  49        4S          3.40726   1.09361  -0.00169   0.00000   0.00000
  50        4PX        -0.01285  -0.03406   1.44447   0.00000   0.00000
  51        4PY         2.48379   0.93838   0.04757   0.00000   0.00000
  52        4PZ         0.00000   0.00000   0.00000   0.95608  -0.50213
  53        5S         -1.42895   5.86307   0.09879   0.00000   0.00000
  54        5PX         0.03822  -0.00118  -1.39993   0.00000   0.00000
  55        5PY        -2.08326   2.10061   0.07793   0.00000   0.00000
  56        5PZ         0.00000   0.00000   0.00000  -0.02996   1.04807
  57        6D 0        0.00024   0.01225   0.00009   0.00000   0.00000
  58        6D+1        0.00000   0.00000   0.00000  -0.00026  -0.00015
  59        6D-1        0.00000   0.00000   0.00000   0.04001   0.02070
  60        6D+2        0.01121  -0.00942  -0.00044   0.00000   0.00000
  61        6D-2        0.00008  -0.00092   0.02729   0.00000   0.00000
  62        7D 0       -0.47966   0.25017   0.00378   0.00000   0.00000
  63        7D+1        0.00000   0.00000   0.00000  -0.00025  -0.00218
  64        7D-1        0.00000   0.00000   0.00000  -0.17990   0.10169
  65        7D+2       -0.42278  -0.40907  -0.00130   0.00000   0.00000
  66        7D-2       -0.00577   0.00077  -0.24718   0.00000   0.00000
  67 5   N  1S          0.01403   0.01150   0.00008   0.00000   0.00000
  68        2S          0.02486   0.01973   0.00011   0.00000   0.00000
  69        2PX         0.00028   0.00344  -0.19860   0.00000   0.00000
  70        2PY        -0.20889  -0.07991  -0.00252   0.00000   0.00000
  71        2PZ         0.00000   0.00000   0.00000  -0.19808   0.11270
  72        3S          0.03225  -0.02064   0.00107   0.00000   0.00000
  73        3PX        -0.00078   0.00932  -0.62850   0.00000   0.00000
  74        3PY        -0.39143  -0.22321  -0.00723   0.00000   0.00000
  75        3PZ         0.00000   0.00000   0.00000  -0.57509   0.46481
  76        4S         -3.16151  -1.26808  -0.03042   0.00000   0.00000
  77        4PX        -0.01452  -0.01956   0.98596   0.00000   0.00000
  78        4PY         3.30630   1.60992   0.03479   0.00000   0.00000
  79        4PZ         0.00000   0.00000   0.00000   0.88676  -0.94895
  80        5S          3.04622  -5.14963  -0.14490   0.00000   0.00000
  81        5PX        -0.00118  -0.00340  -0.15449   0.00000   0.00000
  82        5PY        -1.46591   1.05784   0.02910   0.00000   0.00000
  83        5PZ         0.00000   0.00000   0.00000  -0.55985   0.15030
  84        6D 0       -0.01262  -0.00644  -0.00010   0.00000   0.00000
  85        6D+1        0.00000   0.00000   0.00000  -0.00002   0.00006
  86        6D-1        0.00000   0.00000   0.00000   0.00226  -0.01151
  87        6D+2       -0.02098  -0.01478  -0.00028   0.00000   0.00000
  88        6D-2       -0.00020  -0.00016   0.00503   0.00000   0.00000
  89        7D 0        0.10012   0.26646   0.00358   0.00000   0.00000
  90        7D+1        0.00000   0.00000   0.00000   0.00047   0.00046
  91        7D-1        0.00000   0.00000   0.00000  -0.19920  -0.24227
  92        7D+2        0.36869  -0.02193   0.00123   0.00000   0.00000
  93        7D-2        0.00454   0.00302  -0.06408   0.00000   0.00000
                          41        42        43        44        45
                           V         V         V         V         V
     Eigenvalues --     0.84155   0.85532   0.86648   0.89805   0.97364
   1 1   C  1S          0.09853  -0.00227   0.00000   0.00000   0.00729
   2        2S          0.19508  -0.00456   0.00000   0.00000   0.02190
   3        2PX         0.00023   0.04181   0.00000   0.00000  -0.00056
   4        2PY        -0.03351   0.00014   0.00000   0.00000  -0.06139
   5        2PZ         0.00000   0.00000  -0.00222   0.00014   0.00000
   6        3S         -1.67783   0.03843   0.00000   0.00000  -0.47212
   7        3PX        -0.00047   0.26598   0.00000   0.00000  -0.00513
   8        3PY         0.38417  -0.01259   0.00000   0.00000  -0.67934
   9        3PZ         0.00000   0.00000  -0.07452   0.00057   0.00000
  10        4S         12.77849  -0.27285   0.00000   0.00000  -0.36324
  11        4PX        -0.03375  -0.59834   0.00000   0.00000  -0.02155
  12        4PY         3.20192  -0.06581   0.00000   0.00000  -1.08002
  13        4PZ         0.00000   0.00000  -0.32380  -0.00126   0.00000
  14        5S          6.04615  -0.13467   0.00000   0.00000  -0.09489
  15        5PX        -0.00688   0.01540   0.00000   0.00000   0.00526
  16        5PY         1.30148  -0.02382   0.00000   0.00000   0.29811
  17        5PZ         0.00000   0.00000   0.64932  -0.00105   0.00000
  18        6D 0        0.00531  -0.00016   0.00000   0.00000   0.00717
  19        6D+1        0.00000   0.00000   0.00000  -0.00254   0.00000
  20        6D-1        0.00000   0.00000  -0.00306  -0.00003   0.00000
  21        6D+2        0.00003   0.00006   0.00000   0.00000   0.02663
  22        6D-2        0.00010  -0.00091   0.00000   0.00000   0.00017
  23        7D 0       -0.33672   0.00408   0.00000   0.00000  -0.69030
  24        7D+1        0.00000   0.00000   0.00163  -0.30938   0.00000
  25        7D-1        0.00000   0.00000  -0.25351  -0.00499   0.00000
  26        7D+2       -0.17361   0.00824   0.00000   0.00000   0.61448
  27        7D-2       -0.02113  -0.66130   0.00000   0.00000   0.01442
  28 2   H  1S          0.02267  -0.00644   0.00000   0.00000  -0.00551
  29        2S         -0.77717  -0.53920   0.00000   0.00000  -1.05594
  30        3S          0.49910   0.80523   0.00000   0.00000   0.14480
  31        4PX         0.10722   0.04299   0.00000   0.00000   0.06125
  32        4PY        -0.09289  -0.00028   0.00000   0.00000  -0.02567
  33        4PZ         0.00000   0.00000  -0.01303  -0.08174   0.00000
  34 3   H  1S          0.02287   0.00586   0.00000   0.00000  -0.00595
  35        2S         -0.75576   0.56152   0.00000   0.00000  -1.10448
  36        3S          0.46698  -0.82133   0.00000   0.00000   0.15380
  37        4PX        -0.10398   0.04737   0.00000   0.00000  -0.06433
  38        4PY        -0.09299   0.00162   0.00000   0.00000  -0.02660
  39        4PZ         0.00000   0.00000  -0.01194   0.08140   0.00000
  40 4   N  1S          0.02489  -0.00062   0.00000   0.00000   0.01405
  41        2S          0.04687  -0.00116   0.00000   0.00000   0.02982
  42        2PX        -0.00204  -0.15096   0.00000   0.00000  -0.00018
  43        2PY        -0.15132   0.00173   0.00000   0.00000  -0.01723
  44        2PZ         0.00000   0.00000  -0.20522   0.00046   0.00000
  45        3S         -0.30393   0.00666   0.00000   0.00000  -0.36897
  46        3PX        -0.00656  -0.48491   0.00000   0.00000  -0.00214
  47        3PY        -0.26509   0.00197   0.00000   0.00000   0.01981
  48        3PZ         0.00000   0.00000  -0.72025   0.00169   0.00000
  49        4S         -1.38398   0.02885   0.00000   0.00000   2.28544
  50        4PX         0.00721   1.88044   0.00000   0.00000   0.01514
  51        4PY         6.00577  -0.11222   0.00000   0.00000  -1.20763
  52        4PZ         0.00000   0.00000   2.14277  -0.00159   0.00000
  53        5S          0.28212  -0.02603   0.00000   0.00000  -4.72324
  54        5PX        -0.08518  -1.25942   0.00000   0.00000   0.00757
  55        5PY         9.88889  -0.23629   0.00000   0.00000  -1.81862
  56        5PZ         0.00000   0.00000  -1.87592   0.00312   0.00000
  57        6D 0        0.00362  -0.00008   0.00000   0.00000   0.00676
  58        6D+1        0.00000   0.00000  -0.00006   0.00566   0.00000
  59        6D-1        0.00000   0.00000   0.01261   0.00017   0.00000
  60        6D+2        0.01315  -0.00044   0.00000   0.00000   0.01894
  61        6D-2        0.00061   0.01839   0.00000   0.00000   0.00035
  62        7D 0        0.07594  -0.00246   0.00000   0.00000   0.13105
  63        7D+1        0.00000   0.00000  -0.00019   0.61372   0.00000
  64        7D-1        0.00000   0.00000   0.12031   0.00347   0.00000
  65        7D+2        0.06594  -0.00386   0.00000   0.00000  -0.38860
  66        7D-2       -0.00018   0.07861   0.00000   0.00000  -0.00407
  67 5   N  1S         -0.00380   0.00001   0.00000   0.00000  -0.03068
  68        2S         -0.01049   0.00009   0.00000   0.00000  -0.05832
  69        2PX         0.00496   0.13698   0.00000   0.00000  -0.00026
  70        2PY        -0.12576   0.00292   0.00000   0.00000  -0.03468
  71        2PZ         0.00000   0.00000   0.09793  -0.00020   0.00000
  72        3S          0.18982  -0.00303   0.00000   0.00000   0.42772
  73        3PX         0.01764   0.54777   0.00000   0.00000  -0.00157
  74        3PY        -0.21591   0.00696   0.00000   0.00000   0.05130
  75        3PZ         0.00000   0.00000   0.38864  -0.00033   0.00000
  76        4S         -3.56620   0.07049   0.00000   0.00000  -0.51047
  77        4PX        -0.05843  -1.61520   0.00000   0.00000   0.00052
  78        4PY         2.68637  -0.06167   0.00000   0.00000   0.03103
  79        4PZ         0.00000   0.00000  -1.34349   0.00075   0.00000
  80        5S        -12.58950   0.29678   0.00000   0.00000   4.78907
  81        5PX         0.01565   1.18663   0.00000   0.00000   0.00783
  82        5PY         2.35095  -0.05151   0.00000   0.00000  -1.39937
  83        5PZ         0.00000   0.00000   1.16757  -0.00124   0.00000
  84        6D 0       -0.00468   0.00009   0.00000   0.00000   0.00563
  85        6D+1        0.00000   0.00000   0.00012   0.00535   0.00000
  86        6D-1        0.00000   0.00000  -0.02044   0.00002   0.00000
  87        6D+2       -0.00914   0.00044   0.00000   0.00000  -0.00066
  88        6D-2       -0.00061  -0.02214   0.00000   0.00000  -0.00006
  89        7D 0        0.15548  -0.00271   0.00000   0.00000   0.63998
  90        7D+1        0.00000   0.00000   0.00120   0.64664   0.00000
  91        7D-1        0.00000   0.00000  -0.13052   0.00272   0.00000
  92        7D+2        0.30510  -0.00370   0.00000   0.00000  -0.28579
  93        7D-2       -0.00083  -0.21362   0.00000   0.00000  -0.00370
                          46        47        48        49        50
                           V         V         V         V         V
     Eigenvalues --     1.00416   1.01113   1.12713   1.21189   1.23588
   1 1   C  1S         -0.03972  -0.00321   0.00458   0.00000  -0.00071
   2        2S         -0.07990  -0.00638   0.03203   0.00000  -0.00140
   3        2PX        -0.00574   0.06394  -0.00040   0.00000  -0.05764
   4        2PY         0.06807   0.00452  -0.07566   0.00000   0.00598
   5        2PZ         0.00000   0.00000   0.00000  -0.00042   0.00000
   6        3S          0.80691   0.06323  -0.31362   0.00000   0.00163
   7        3PX        -0.06507   0.73000   0.00936   0.00000  -0.00165
   8        3PY        -0.10527  -0.01698  -1.53615   0.00000   0.01707
   9        3PZ         0.00000   0.00000   0.00000  -0.00111   0.00000
  10        4S         -2.85943  -0.26449 -12.10951   0.00000   0.13640
  11        4PX        -0.25633   3.07883   0.06898   0.00000  -0.60854
  12        4PY        -2.12187  -0.23283  -4.90985   0.00000   0.09835
  13        4PZ         0.00000   0.00000   0.00000  -0.00364   0.00000
  14        5S          1.31930   0.12128  -1.69918   0.00000   0.03331
  15        5PX         0.02326  -0.28263   0.01249   0.00000  -0.00554
  16        5PY         1.03292   0.09017   0.16841   0.00000   0.00834
  17        5PZ         0.00000   0.00000   0.00000   0.00096   0.00000
  18        6D 0        0.00865   0.00091   0.02909   0.00000   0.00051
  19        6D+1        0.00000   0.00000   0.00000   0.00697   0.00000
  20        6D-1        0.00000   0.00000   0.00000   0.00001   0.00000
  21        6D+2        0.02629   0.00244   0.08045   0.00000   0.00028
  22        6D-2        0.00131  -0.01290   0.00071   0.00000   0.00691
  23        7D 0        0.26237   0.02491   0.86122   0.00000  -0.01151
  24        7D+1        0.00000   0.00000   0.00000   0.13243   0.00000
  25        7D-1        0.00000   0.00000   0.00000  -0.00035   0.00000
  26        7D+2        0.81144   0.07498   0.98740   0.00000  -0.03297
  27        7D-2        0.17504  -1.89409  -0.00076   0.00000  -0.95802
  28 2   H  1S          0.00630   0.01283   0.02752   0.00000   0.01196
  29        2S          0.06582  -2.80780   0.67003   0.00000  -0.43234
  30        3S         -0.10323  -0.05542  -0.67615   0.00000   0.31955
  31        4PX        -0.01989   0.10988  -0.00195   0.00000  -0.07646
  32        4PY         0.00441  -0.15298  -0.03751   0.00000  -0.24808
  33        4PZ         0.00000   0.00000   0.00000   0.20033   0.00000
  34 3   H  1S          0.00909  -0.01183   0.02817   0.00000  -0.01259
  35        2S         -0.42837   2.75131   0.70461   0.00000   0.45094
  36        3S         -0.10071   0.04247  -0.62794   0.00000  -0.31704
  37        4PX        -0.00021   0.11057   0.00013   0.00000  -0.07351
  38        4PY        -0.02260   0.15285  -0.02864   0.00000   0.24143
  39        4PZ         0.00000   0.00000   0.00000  -0.19870   0.00000
  40 4   N  1S          0.05091   0.00418   0.05458   0.00000   0.00131
  41        2S          0.10251   0.00859   0.11942   0.00000   0.00272
  42        2PX        -0.01092   0.11979   0.00024   0.00000   0.00943
  43        2PY         0.04516   0.00340  -0.02555   0.00000   0.00434
  44        2PZ         0.00000   0.00000   0.00000  -0.00009   0.00000
  45        3S         -0.85836  -0.07848  -1.50206   0.00000  -0.02176
  46        3PX        -0.05294   0.61715   0.00154   0.00000   0.00482
  47        3PY        -0.30190  -0.02225  -0.06382   0.00000   0.01512
  48        3PZ         0.00000   0.00000   0.00000  -0.00066   0.00000
  49        4S          5.36555   0.51560  12.29964   0.00000  -0.11611
  50        4PX         0.08511  -1.00003   0.03284   0.00000   1.55275
  51        4PY         0.65115   0.02505  -4.86005   0.00000   0.07357
  52        4PZ         0.00000   0.00000   0.00000   0.00689   0.00000
  53        5S         -0.77053   0.08032  -7.93931   0.00000  -0.20985
  54        5PX         0.00204  -0.04216   0.02631   0.00000  -0.18163
  55        5PY        -0.65918   0.02182  -7.31505   0.00000  -0.04384
  56        5PZ         0.00000   0.00000   0.00000  -0.00098   0.00000
  57        6D 0        0.00858   0.00103   0.03719   0.00000  -0.00039
  58        6D+1        0.00000   0.00000   0.00000  -0.01209   0.00000
  59        6D-1        0.00000   0.00000   0.00000  -0.00025   0.00000
  60        6D+2        0.01581   0.00122   0.05633   0.00000  -0.00002
  61        6D-2       -0.00206   0.02731   0.00035   0.00000  -0.02489
  62        7D 0        0.01408  -0.00050  -0.32618   0.00000  -0.01385
  63        7D+1        0.00000   0.00000   0.00000  -0.77397   0.00000
  64        7D-1        0.00000   0.00000   0.00000  -0.00668   0.00000
  65        7D+2       -0.09445  -0.00870  -0.92403   0.00000   0.01826
  66        7D-2        0.00914  -0.10289  -0.01521   0.00000  -0.58898
  67 5   N  1S          0.07968   0.00706  -0.04875   0.00000   0.00059
  68        2S          0.16084   0.01427  -0.09213   0.00000   0.00117
  69        2PX         0.00220  -0.03072   0.00116   0.00000   0.09736
  70        2PY         0.01761   0.00055  -0.07236   0.00000   0.00229
  71        2PZ         0.00000   0.00000   0.00000   0.00047   0.00000
  72        3S         -1.15941  -0.10317   0.79331   0.00000  -0.00846
  73        3PX         0.00189  -0.04443   0.00023   0.00000   0.27086
  74        3PY         0.17083   0.01289   0.24887   0.00000   0.00666
  75        3PZ         0.00000   0.00000   0.00000   0.00120   0.00000
  76        4S          0.34890   0.03946  -1.53423   0.00000  -0.00395
  77        4PX        -0.03095   0.31220  -0.00614   0.00000  -0.67600
  78        4PY         0.80618   0.07611   0.77105   0.00000  -0.00974
  79        4PZ         0.00000   0.00000   0.00000  -0.00311   0.00000
[...]
  72        3S          0.00000   0.00164   0.00000   0.00000   0.00465
  73        3PX         0.00013   0.00000   0.00000   0.00000   0.00000
  74        3PY         0.00000   0.00104   0.00000   0.00000   0.00222
  75        3PZ         0.00000   0.00000   0.00000   0.01446   0.00000
  76        4S          0.00000   0.00033   0.00000   0.00000   0.00128
  77        4PX         0.00012   0.00000   0.00000   0.00000   0.00000
  78        4PY         0.00000  -0.00008   0.00000   0.00000  -0.00017
  79        4PZ         0.00000   0.00000   0.00000   0.01421   0.00000
  80        5S          0.00000   0.00005   0.00000   0.00000   0.00011
  81        5PX         0.00000   0.00000   0.00000   0.00000   0.00000
  82        5PY         0.00000  -0.00003   0.00000   0.00000  -0.00006
  83        5PZ         0.00000   0.00000   0.00000   0.00086   0.00000
  84        6D 0        0.00000   0.00001   0.00000   0.00000   0.00001
  85        6D+1        0.00000   0.00000   0.00000   0.00000   0.00000
  86        6D-1        0.00000   0.00000   0.00000   0.00009   0.00000
  87        6D+2        0.00000   0.00001   0.00000   0.00000   0.00004
  88        6D-2        0.00000   0.00000   0.00000   0.00000   0.00000
  89        7D 0        0.00000   0.00008   0.00000   0.00000  -0.00006
  90        7D+1        0.00000   0.00000   0.00000   0.00000   0.00000
  91        7D-1        0.00000   0.00000   0.00000   0.00040   0.00000
  92        7D+2        0.00000  -0.00007   0.00000   0.00000   0.00004
  93        7D-2        0.00003   0.00000   0.00000   0.00000   0.00000
                          66        67        68        69        70
  66        7D-2        0.00302
  67 5   N  1S          0.00000   0.65428
  68        2S          0.00000   0.50975   0.51662
  69        2PX         0.00136   0.00000   0.00000   0.05935
  70        2PY         0.00000   0.00000   0.00000   0.00000   0.08078
  71        2PZ         0.00000   0.00000   0.00000   0.00000   0.00000
  72        3S          0.00000  -0.04549  -0.09161   0.00000   0.00000
  73        3PX         0.00612   0.00000   0.00000   0.05641   0.00000
  74        3PY         0.00000   0.00000   0.00000   0.00000   0.07289
  75        3PZ         0.00000   0.00000   0.00000   0.00000   0.00000
  76        4S          0.00000  -0.02441  -0.04266   0.00000   0.00000
  77        4PX         0.00513   0.00000   0.00000   0.01511   0.00000
  78        4PY         0.00000   0.00000   0.00000   0.00000   0.01302
  79        4PZ         0.00000   0.00000   0.00000   0.00000   0.00000
  80        5S          0.00000   0.00156   0.00241   0.00000   0.00000
  81        5PX         0.00006   0.00000   0.00000   0.00017   0.00000
  82        5PY         0.00000   0.00000   0.00000   0.00000   0.00124
  83        5PZ         0.00000   0.00000   0.00000   0.00000   0.00000
  84        6D 0        0.00000   0.00000   0.00000   0.00000   0.00000
  85        6D+1        0.00000   0.00000   0.00000   0.00000   0.00000
  86        6D-1        0.00000   0.00000   0.00000   0.00000   0.00000
  87        6D+2        0.00000   0.00000   0.00000   0.00000   0.00000
  88        6D-2        0.00010   0.00000   0.00000   0.00000   0.00000
  89        7D 0        0.00000   0.00000   0.00000   0.00000   0.00000
  90        7D+1        0.00000   0.00000   0.00000   0.00000   0.00000
  91        7D-1        0.00000   0.00000   0.00000   0.00000   0.00000
  92        7D+2        0.00000   0.00000   0.00000   0.00000   0.00000
  93        7D-2        0.00086   0.00000   0.00000   0.00000   0.00000
                          71        72        73        74        75
  71        2PZ         0.13842
  72        3S          0.00000   0.67751
  73        3PX         0.00000   0.00000   0.13951
  74        3PY         0.00000   0.00000   0.00000   0.17116
  75        3PZ         0.12811   0.00000   0.00000   0.00000   0.30855
  76        4S          0.00000   0.50122   0.00000   0.00000   0.00000
  77        4PX         0.00000   0.00000   0.07090   0.00000   0.00000
  78        4PY         0.00000   0.00000   0.00000   0.05808   0.00000
  79        4PZ         0.03887   0.00000   0.00000   0.00000   0.17751
  80        5S          0.00000  -0.03211   0.00000   0.00000   0.00000
  81        5PX         0.00000   0.00000   0.00106   0.00000   0.00000
  82        5PY         0.00000   0.00000   0.00000   0.00721   0.00000
  83        5PZ         0.00200   0.00000   0.00000   0.00000   0.01199
  84        6D 0        0.00000   0.00000   0.00000   0.00000   0.00000
  85        6D+1        0.00000   0.00000   0.00000   0.00000   0.00000
  86        6D-1        0.00000   0.00000   0.00000   0.00000   0.00000
  87        6D+2        0.00000   0.00000   0.00000   0.00000   0.00000
  88        6D-2        0.00000   0.00000   0.00000   0.00000   0.00000
  89        7D 0        0.00000   0.00000   0.00000   0.00000   0.00000
  90        7D+1        0.00000   0.00000   0.00000   0.00000   0.00000
  91        7D-1        0.00000   0.00000   0.00000   0.00000   0.00000
  92        7D+2        0.00000   0.00000   0.00000   0.00000   0.00000
  93        7D-2        0.00000   0.00000   0.00000   0.00000   0.00000
                          76        77        78        79        80
  76        4S          0.68702
  77        4PX         0.00000   0.08750
  78        4PY         0.00000   0.00000   0.04816
  79        4PZ         0.00000   0.00000   0.00000   0.24977
  80        5S         -0.09158   0.00000   0.00000   0.00000   0.08411
  81        5PX         0.00000   0.00245   0.00000   0.00000   0.00000
  82        5PY         0.00000   0.00000   0.01028   0.00000   0.00000
  83        5PZ         0.00000   0.00000   0.00000   0.03196   0.00000
  84        6D 0        0.00000   0.00000   0.00000   0.00000   0.00000
  85        6D+1        0.00000   0.00000   0.00000   0.00000   0.00000
  86        6D-1        0.00000   0.00000   0.00000   0.00000   0.00000
  87        6D+2        0.00000   0.00000   0.00000   0.00000   0.00000
  88        6D-2        0.00000   0.00000   0.00000   0.00000   0.00000
  89        7D 0        0.00000   0.00000   0.00000   0.00000   0.00000
  90        7D+1        0.00000   0.00000   0.00000   0.00000   0.00000
  91        7D-1        0.00000   0.00000   0.00000   0.00000   0.00000
  92        7D+2        0.00000   0.00000   0.00000   0.00000   0.00000
  93        7D-2        0.00000   0.00000   0.00000   0.00000   0.00000
                          81        82        83        84        85
  81        5PX         0.00015
  82        5PY         0.00000   0.01094
  83        5PZ         0.00000   0.00000   0.00916
  84        6D 0        0.00000   0.00000   0.00000   0.00013
  85        6D+1        0.00000   0.00000   0.00000   0.00000   0.00000
  86        6D-1        0.00000   0.00000   0.00000   0.00000   0.00000
  87        6D+2        0.00000   0.00000   0.00000   0.00000   0.00000
  88        6D-2        0.00000   0.00000   0.00000   0.00000   0.00000
  89        7D 0        0.00000   0.00000   0.00000   0.00009   0.00000
  90        7D+1        0.00000   0.00000   0.00000   0.00000   0.00000
  91        7D-1        0.00000   0.00000   0.00000   0.00000   0.00000
  92        7D+2        0.00000   0.00000   0.00000   0.00000   0.00000
  93        7D-2        0.00000   0.00000   0.00000   0.00000   0.00000
                          86        87        88        89        90
  86        6D-1        0.00018
  87        6D+2        0.00000   0.00039
  88        6D-2        0.00000   0.00000   0.00020
  89        7D 0        0.00000   0.00000   0.00000   0.00036
  90        7D+1        0.00000   0.00000   0.00000   0.00000   0.00000
  91        7D-1        0.00026   0.00000   0.00000   0.00000   0.00000
  92        7D+2        0.00000   0.00028   0.00000   0.00000   0.00000
  93        7D-2        0.00000   0.00000   0.00030   0.00000   0.00000
                          91        92        93
  91        7D-1        0.00195
  92        7D+2        0.00000   0.00100
  93        7D-2        0.00000   0.00000   0.00216
     Gross orbital populations:
                           1
   1 1   C  1S          1.10354
   2        2S          0.88491
   3        2PX         0.23441
   4        2PY         0.22125
   5        2PZ         0.21085
   6        3S          0.74537
   7        3PX         0.51591
   8        3PY         0.46536
   9        3PZ         0.49170
  10        4S          0.47064
  11        4PX         0.24387
  12        4PY         0.12139
  13        4PZ         0.38807
  14        5S          0.06070
  15        5PX         0.01716
  16        5PY         0.01646
  17        5PZ         0.02943
  18        6D 0        0.00239
  19        6D+1        0.00000
  20        6D-1        0.00398
  21        6D+2        0.00790
  22        6D-2        0.00603
  23        7D 0        0.00126
  24        7D+1        0.00000
  25        7D-1        0.01920
  26        7D+2        0.00659
  27        7D-2        0.04810
  28 2   H  1S          0.27046
  29        2S          0.50304
  30        3S          0.05044
  31        4PX         0.01449
  32        4PY         0.00599
  33        4PZ         0.00784
  34 3   H  1S          0.27068
  35        2S          0.50295
  36        3S          0.05130
  37        4PX         0.01453
  38        4PY         0.00582
  39        4PZ         0.00785
  40 4   N  1S          1.09529
  41        2S          0.89620
  42        2PX         0.24426
  43        2PY         0.26974
  44        2PZ         0.23988
  45        3S          0.89588
  46        3PX         0.55530
  47        3PY         0.60782
  48        3PZ         0.56113
  49        4S          0.55671
  50        4PX         0.38484
  51        4PY         0.05686
  52        4PZ         0.39256
  53        5S         -0.11899
  54        5PX         0.01907
  55        5PY        -0.02705
  56        5PZ        -0.00435
  57        6D 0        0.00070
  58        6D+1        0.00000
  59        6D-1        0.00406
  60        6D+2        0.00203
  61        6D-2        0.00153
  62        7D 0        0.00308
  63        7D+1        0.00000
  64        7D-1        0.07425
  65        7D+2        0.00698
  66        7D-2        0.03197
  67 5   N  1S          1.09615
  68        2S          0.89538
  69        2PX         0.14092
  70        2PY         0.19880
  71        2PZ         0.31432
  72        3S          1.00349
  73        3PX         0.33039
  74        3PY         0.46804
  75        3PZ         0.66496
  76        4S          0.94386
  77        4PX         0.27772
  78        4PY         0.21370
  79        4PZ         0.53187
  80        5S         -0.01063
  81        5PX         0.00662
  82        5PY         0.05090
  83        5PZ         0.04550
  84        6D 0        0.00088
  85        6D+1        0.00000
  86        6D-1        0.00106
  87        6D+2        0.00264
  88        6D-2        0.00134
  89        7D 0        0.00388
  90        7D+1        0.00000
  91        7D-1        0.01584
  92        7D+2        0.01182
  93        7D-2        0.01896
          Condensed to atoms (all electrons):
               1          2          3          4          5
     1  C    5.065911   0.419531   0.419592   0.503195  -0.091762
     2  H    0.419531   0.508197  -0.031748  -0.034041  -0.009660
     3  H    0.419592  -0.031748   0.510114  -0.035036  -0.009792
     4  N    0.503195  -0.034041  -0.035036   5.679954   0.635656
     5  N   -0.091762  -0.009660  -0.009792   0.635656   6.703955
 Mulliken charges:
               1
     1  C   -0.316467
     2  H    0.147722
     3  H    0.146869
     4  N    0.250272
     5  N   -0.228396
 Sum of Mulliken charges =   0.00000
 Mulliken charges with hydrogens summed into heavy atoms:
               1
     1  C   -0.021876
     4  N    0.250272
     5  N   -0.228396
 Electronic spatial extent (au):  <R**2>=            145.2222
 Charge=              0.0000 electrons
 Dipole moment (field-independent basis, Debye):
    X=              0.0173    Y=             -2.9051    Z=              0.0000  Tot=              2.9051
 Quadrupole moment (field-independent basis, Debye-Ang):
   XX=            -15.9605   YY=            -17.8931   ZZ=            -19.4093
   XY=             -0.0017   XZ=              0.0000   YZ=              0.0000
 Traceless Quadrupole moment (field-independent basis, Debye-Ang):
   XX=              1.7938   YY=             -0.1388   ZZ=             -1.6550
   XY=             -0.0017   XZ=              0.0000   YZ=              0.0000
 Octapole moment (field-independent basis, Debye-Ang**2):
  XXX=              0.0183  YYY=             -9.2578  ZZZ=              0.0000  XYY=              0.0841
  XXY=             -2.3030  XXZ=              0.0000  XZZ=              0.0015  YZZ=             -0.2097
  YYZ=              0.0000  XYZ=              0.0000
 Hexadecapole moment (field-independent basis, Debye-Ang**3):
 XXXX=            -21.1976 YYYY=           -152.6995 ZZZZ=            -20.7620 XXXY=              0.3218
 XXXZ=              0.0000 YYYX=              0.3127 YYYZ=              0.0000 ZZZX=              0.0000
 ZZZY=              0.0000 XXYY=            -24.5712 XXZZ=             -7.4229 YYZZ=            -33.1455
 XXYZ=              0.0000 YYXZ=              0.0000 ZZXY=              0.1478
 N-N= 5.820601581499D+01 E-N=-4.628809152704D+02  KE= 1.476978061538D+02
 Symmetry A'   KE= 1.415043597003D+02
 Symmetry A"   KE= 6.193446453508D+00
 Orbital energies and kinetic energies (alpha):
                                 1                 2
   1         O               -14.488608         22.068218
   2         O               -14.436754         22.077901
   3         O               -10.256092         15.958761
   4         O                -1.038584          2.199072
   5         O                -0.859601          2.085573
   6         O                -0.603706          1.505821
   7         O                -0.532108          1.169271
   8         O                -0.459785          2.156559
   9         O                -0.451148          1.512003
  10         O                -0.362896          1.531004
  11         O                -0.247808          1.584721
  12         V                -0.097051          1.931761
  13         V                -0.019706          1.575002
  14         V                 0.008463          0.331562
  15         V                 0.048067          0.253210
  16         V                 0.048225          0.233754
  17         V                 0.076474          0.583400
  18         V                 0.103442          0.717038
  19         V                 0.138569          0.692753
  20         V                 0.143621          0.442538
  21         V                 0.153360          0.400870
  22         V                 0.174989          1.692230
  23         V                 0.213966          0.458035
  24         V                 0.216574          0.482218
  25         V                 0.223372          0.440947
  26         V                 0.228343          0.856009
  27         V                 0.232988          1.304074
  28         V                 0.289724          0.687041
  29         V                 0.356450          0.912412
  30         V                 0.502875          1.435845
  31         V                 0.512346          1.337255
  32         V                 0.538464          1.488907
  33         V                 0.550530          1.102339
  34         V                 0.657952          2.206765
  35         V                 0.661200          1.638948
  36         V                 0.750837          1.885902
  37         V                 0.771323          1.414006
  38         V                 0.774805          1.957116
  39         V                 0.781379          1.787853
  40         V                 0.808678          1.779429
  41         V                 0.841551          2.547399
  42         V                 0.855316          1.852852
  43         V                 0.866476          1.950093
  44         V                 0.898047          1.522838
  45         V                 0.973637          1.721416
  46         V                 1.004160          2.763552
  47         V                 1.011126          1.816575
  48         V                 1.127133          2.372973
  49         V                 1.211895          1.865238
  50         V                 1.235885          2.073718
  51         V                 1.255715          2.786486
  52         V                 1.303065          2.833871
  53         V                 1.319297          2.135753
  54         V                 1.389717          2.241279
  55         V                 1.659101          2.538246
  56         V                 1.676051          2.354380
  57         V                 1.773749          2.786452
  58         V                 1.892373          3.318971
  59         V                 1.893038          2.527115
  60         V                 2.062003          3.482086
  61         V                 2.102454          3.405789
  62         V                 2.326876          3.664994
  63         V                 2.339417          3.694883
  64         V                 2.499487          4.415474
  65         V                 2.634771          4.085935
  66         V                 2.800871          6.295310
  67         V                 2.829356          4.546905
  68         V                 3.198632          4.911301
  69         V                 3.231536          6.248511
  70         V                 3.358635          5.795519
  71         V                 3.416005          6.296578
  72         V                 3.505594          6.107156
  73         V                 3.836771          8.339265
  74         V                 3.868506          8.516496
  75         V                 3.925465          8.939702
  76         V                 3.926511          8.820582
  77         V                 3.984114          7.270056
  78         V                 4.117707          6.523890
  79         V                 4.448988          8.952668
  80         V                 4.675417          7.147489
  81         V                 4.684411          7.152340
  82         V                 4.793915          7.240452
  83         V                 4.813419          7.367733
  84         V                 4.857290          8.294058
  85         V                 4.911040          7.348944
  86         V                 4.913739          7.372625
  87         V                 5.092651          7.605201
  88         V                 5.235034          7.748066
  89         V                 5.372998          9.097908
  90         V                 5.560752          8.327634
  91         V                24.263250         60.558575
  92         V                35.497595         89.061860
  93         V                35.575928         88.932006
 Total kinetic energy from orbitals= 1.476978061538D+02
 1|1|UNPC-DESKTOP-KC5UJLK|SP|RAPFD|6-311+G(2d,p)|C1H2N2|23122|05-Feb-20
 22|0||# apfd/6-311+g(2d,p) geom=connectivity pop=full int=ultrafine||E
 nergy Calculation(GC)||0,1|C,0,-1.95359434,-0.49323478,0.41875722|H,0,
 -2.89388521,-0.88844989,0.09540277|H,0,-1.42954828,-0.95824035,1.22748
 804|N,0,-1.46603619,0.49663394,-0.13351512|N,0,-0.93648799,1.57176092,
 -0.73335789||Version=IA32W-G09RevD.01|State=1-A'|HF=-148.6010794|RMSD=
 5.849e-009|Dipole=-0.4516967,-0.9168987,0.5115023|Quadrupole=0.5405641
 ,-0.5005821,-0.039982,0.2733399,1.0410662,-0.4700616|PG=CS [SG(C1H2N2)
 ]||@


 THE FIRST MORNING OF CREATION WROTE WHAT THE LAST DAWN OF
 RECKONING SHALL READ. -- OMAR KHAYYAM
 Job cpu time:       0 days  0 hours  0 minutes 11.0 seconds.
 File lengths (MBytes):  RWF=      5 Int=      0 D2E=      0 Chk=      1 Scr=      1
 Normal termination of Gaussian 09 at Sat Feb 05 14:48:55 2022.
