 Entering Link 1 = C:\G09W\l1.exe PID=     10244.
  
 Copyright (c) 1988,1990,1992,1993,1995,1998,2003,2009,2013,
            Gaussian, Inc.  All Rights Reserved.
  
 This is part of the Gaussian(R) 09 program.  It is based on
 the Gaussian(R) 03 system (copyright 2003, Gaussian, Inc.),
 the Gaussian(R) 98 system (copyright 1998, Gaussian, Inc.),
 the Gaussian(R) 94 system (copyright 1995, Gaussian, Inc.),
 the Gaussian 92(TM) system (copyright 1992, Gaussian, Inc.),
 the Gaussian 90(TM) system (copyright 1990, Gaussian, Inc.),
 the Gaussian 88(TM) system (copyright 1988, Gaussian, Inc.),
 the Gaussian 86(TM) system (copyright 1986, Carnegie Mellon
 University), and the Gaussian 82(TM) system (copyright 1983,
 Carnegie Mellon University). Gaussian is a federally registered
 trademark of Gaussian, Inc.
  
 This software contains proprietary and confidential information,
 including trade secrets, belonging to Gaussian, Inc.
  
 This software is provided under written license and may be
 used, copied, transmitted, or stored only in accord with that
 written license.
  
 The following legend is applicable only to US Government
 contracts under FAR:
  
                    RESTRICTED RIGHTS LEGEND
  
 Use, reproduction and disclosure by the US Government is
 subject to restrictions as set forth in subparagraphs (a)
 and (c) of the Commercial Computer Software - Restricted
 Rights clause in FAR 52.227-19.
  
 Gaussian, Inc.
 340 Quinnipiac St., Bldg. 40, Wallingford CT 06492
  
  
 ---------------------------------------------------------------
 Warning -- This program may not be used in any manner that
 competes with the business of Gaussian, Inc. or will provide
 assistance to any competitor of Gaussian, Inc.  The licensee
 of this program is prohibited from giving any competitor of
 Gaussian, Inc. access to this program.  By using this program,
 the user acknowledges that Gaussian, Inc. is engaged in the
 business of creating and licensing software in the field of
 computational chemistry and represents and warrants to the
 licensee that it is not a competitor of Gaussian, Inc. and that
 it will not use this program in any manner prohibited above.
 ---------------------------------------------------------------
  

 Cite this work as:
 Gaussian 09, Revision D.01,
 M. J. Frisch, G. W. Trucks, H. B. Schlegel, G. E. Scuseria, 
 M. A. Robb, J. R. Cheeseman, G. Scalmani, V. Barone, B. Mennucci, 
 G. A. Petersson, H. Nakatsuji, M. Caricato, X. Li, H. P. Hratchian, 
 A. F. Izmaylov, J. Bloino, G. Zheng, J. L. Sonnenberg, M. Hada, 
 M. Ehara, K. Toyota, R. Fukuda, J. Hasegawa, M. Ishida, T. Nakajima, 
 Y. Honda, O. Kitao, H. Nakai, T. Vreven, J. A. Montgomery, Jr., 
 J. E. Peralta, F. Ogliaro, M. Bearpark, J. J. Heyd, E. Brothers, 
 K. N. Kudin, V. N. Staroverov, T. Keith, R. Kobayashi, J. Normand, 
 K. Raghavachari, A. Rendell, J. C. Burant, S. S. Iyengar, J. Tomasi, 
 M. Cossi, N. Rega, J. M. Millam, M. Klene, J. E. Knox, J. B. Cross, 
 V. Bakken, C. Adamo, J. Jaramillo, R. Gomperts, R. E. Stratmann, 
 O. Yazyev, A. J. Austin, R. Cammi, C. Pomelli, J. W. Ochterski, 
 R. L. Martin, K. Morokuma, V. G. Zakrzewski, G. A. Voth, 
 P. Salvador, J. J. Dannenberg, S. Dapprich, A. D. Daniels, 
 O. Farkas, J. B. Foresman, J. V. Ortiz, J. Cioslowski, 
 and D. J. Fox, Gaussian, Inc., Wallingford CT, 2013.
 
 ******************************************
 Gaussian 09:  IA32W-G09RevD.01 24-Apr-2013
                05-Feb-2022 
 ******************************************
 %chk=D:\mindmap\gaussian\calculate\ch3n2_triple\energy.chk
 %nprocshared=4
 Will use up to    4 processors via shared memory.
 %mem=1GB
 -------------------------------------------------------------
 # apfd/6-311+g(2d,p) geom=connectivity pop=full int=ultrafine
 -------------------------------------------------------------
 1/38=1,57=2/1;
 2/12=2,17=6,18=5,40=1/2;
 3/5=4,6=6,7=112,11=2,16=1,25=1,30=1,74=-44,75=-5/1,2,3;
 4//1;
 5/5=2,38=5/2;
 6/7=3,28=1/1;
 99/5=1,9=1/99;
 ----------------------
 Energy Calculation(GC)
 ----------------------
 Symbolic Z-matrix:
 Charge =  0 Multiplicity = 1
 N                    -0.18462  -0.23464   0. 
 N                    -0.34109  -1.31526   0. 
 C                     0.03178   1.25996   0. 
 H                    -0.83504   1.95748   0. 
 H                     1.02867   1.64944   0. 
 
                          Input orientation:                          
 ---------------------------------------------------------------------
 Center     Atomic      Atomic             Coordinates (Angstroms)
 Number     Number       Type             X           Y           Z
 ---------------------------------------------------------------------
      1          7           0       -0.184622   -0.234644    0.000000
      2          7           0       -0.341089   -1.315258    0.000000
      3          6           0        0.031783    1.259963    0.000000
      4          1           0       -0.835043    1.957475    0.000000
      5          1           0        1.028675    1.649441    0.000000
 ---------------------------------------------------------------------
                    Distance matrix (angstroms):
                    1          2          3          4          5
     1  N    0.000000
     2  N    1.091883   0.000000
     3  C    1.510192   2.602076   0.000000
     4  H    2.286576   3.309799   1.112615   0.000000
     5  H    2.240952   3.265837   1.070274   1.889002   0.000000
 Stoichiometry    CH2N2
 Framework group  CS[SG(CH2N2)]
 Deg. of freedom     7
 Full point group                 CS      NOp   2
 Largest Abelian subgroup         CS      NOp   2
 Largest concise Abelian subgroup C1      NOp   1
                         Standard orientation:                         
 ---------------------------------------------------------------------
 Center     Atomic      Atomic             Coordinates (Angstroms)
 Number     Number       Type             X           Y           Z
 ---------------------------------------------------------------------
      1          7           0        0.000000    0.251492    0.000000
      2          7           0        0.005344    1.343363    0.000000
      3          6           0       -0.007387   -1.258682    0.000000
      4          1           0        0.947665   -1.829460    0.000000
      5          1           0       -0.940752   -1.782433    0.000000
 ---------------------------------------------------------------------
 Rotational constants (GHZ):    281.1404704      9.8253224      9.4935413
 Standard basis: 6-311+G(2d,p) (5D, 7F)
 There are    73 symmetry adapted cartesian basis functions of A'  symmetry.
 There are    26 symmetry adapted cartesian basis functions of A"  symmetry.
 There are    67 symmetry adapted basis functions of A'  symmetry.
 There are    26 symmetry adapted basis functions of A"  symmetry.
    93 basis functions,   142 primitive gaussians,    99 cartesian basis functions
    11 alpha electrons       11 beta electrons
       nuclear repulsion energy        58.6328635247 Hartrees.
 NAtoms=    5 NActive=    5 NUniq=    5 SFac= 1.00D+00 NAtFMM=   60 NAOKFM=F Big=F
 Integral buffers will be    262144 words long.
 Raffenetti 2 integral format.
 Two-electron integral symmetry is turned on.
 R6APFD:  NTU= -4 IXU= 1 FactS= 1.050
 Nuclear repulsion after empirical dispersion term =       58.6324516915 Hartrees.
 One-electron integrals computed using PRISM.
 NBasis=    93 RedAO= T EigKep=  6.64D-05  NBF=    67    26
 NBsUse=    93 1.00D-06 EigRej= -1.00D+00 NBFU=    67    26
 ExpMin= 4.38D-02 ExpMax= 6.29D+03 ExpMxC= 9.49D+02 IAcc=3 IRadAn=         5 AccDes= 0.00D+00
 Harris functional with IExCor= 3731 and IRadAn=       5 diagonalized for initial guess.
 HarFok:  IExCor= 3731 AccDes= 0.00D+00 IRadAn=         5 IDoV= 1 UseB2=F ITyADJ=14
 ICtDFT=  3500011 ScaDFX=  1.000000  1.000000  1.000000  1.000000
 FoFCou: FMM=F IPFlag=           0 FMFlag=      100000 FMFlg1=           0
         NFxFlg=           0 DoJE=T BraDBF=F KetDBF=T FulRan=T
         wScrn=  0.000000 ICntrl=     500 IOpCl=  0 I1Cent=   200000004 NGrid=           0
         NMat0=    1 NMatS0=      1 NMatT0=    0 NMatD0=    1 NMtDS0=    0 NMtDT0=    0
 Petite list used in FoFCou.
 Initial guess orbital symmetries:
       Occupied  (A') (A') (A') (A') (A') (A') (A') (A") (A') (A')
                 (A")
       Virtual   (A') (A') (A") (A') (A') (A") (A') (A') (A') (A')
                 (A") (A') (A') (A') (A") (A') (A') (A') (A') (A')
                 (A") (A") (A') (A') (A") (A') (A") (A') (A') (A")
                 (A') (A") (A') (A') (A') (A') (A') (A') (A') (A")
                 (A') (A") (A') (A') (A") (A") (A") (A') (A') (A')
                 (A') (A') (A') (A') (A") (A') (A') (A") (A") (A')
                 (A') (A") (A') (A') (A') (A") (A') (A') (A") (A")
                 (A') (A') (A') (A') (A") (A') (A") (A') (A') (A')
                 (A') (A')
 The electronic state of the initial guess is 1-A'.
 Keep R1 ints in memory in symmetry-blocked form, NReq=14584611.
 Requested convergence on RMS density matrix=1.00D-08 within 128 cycles.
 Requested convergence on MAX density matrix=1.00D-06.
 Requested convergence on             energy=1.00D-06.
 No special actions if energy rises.
 EnCoef did     5 forward-backward iterations
 SCF Done:  E(RAPFD) =  -148.621025055     A.U. after   13 cycles
            NFock= 13  Conv=0.21D-08     -V/T= 2.0051

 **********************************************************************

            Population analysis using the SCF density.

 **********************************************************************

 Orbital symmetries:
       Occupied  (A') (A') (A') (A') (A') (A') (A') (A") (A') (A')
                 (A")
       Virtual   (A') (A") (A') (A') (A') (A") (A') (A') (A') (A")
                 (A') (A') (A') (A") (A') (A') (A') (A') (A') (A')
                 (A") (A") (A') (A') (A") (A') (A') (A") (A') (A")
                 (A') (A") (A') (A') (A') (A') (A') (A') (A") (A')
                 (A') (A") (A') (A') (A") (A") (A") (A') (A') (A')
                 (A') (A') (A') (A') (A") (A') (A') (A") (A") (A')
                 (A') (A") (A') (A') (A') (A") (A') (A') (A") (A")
                 (A') (A') (A') (A") (A') (A') (A") (A') (A') (A')
                 (A') (A')
 The electronic state is 1-A'.
 Alpha  occ. eigenvalues --  -14.51407 -14.44816 -10.24818  -1.17616  -0.79505
 Alpha  occ. eigenvalues --   -0.57635  -0.52513  -0.51156  -0.48270  -0.42869
 Alpha  occ. eigenvalues --   -0.22299
 Alpha virt. eigenvalues --   -0.05014  -0.01252   0.01078   0.04794   0.05305
 Alpha virt. eigenvalues --    0.08028   0.08463   0.11800   0.12508   0.13731
 Alpha virt. eigenvalues --    0.15395   0.20927   0.21278   0.22106   0.23739
 Alpha virt. eigenvalues --    0.24233   0.30551   0.41056   0.48132   0.53045
 Alpha virt. eigenvalues --    0.56359   0.58500   0.61585   0.67164   0.72185
 Alpha virt. eigenvalues --    0.74900   0.75391   0.76300   0.79984   0.82571
 Alpha virt. eigenvalues --    0.87153   0.89116   0.90722   0.93963   0.95193
 Alpha virt. eigenvalues --    0.98237   1.15458   1.22510   1.23960   1.24193
 Alpha virt. eigenvalues --    1.26225   1.33680   1.36047   1.64873   1.68958
 Alpha virt. eigenvalues --    1.79329   1.84663   1.97831   2.05692   2.09803
 Alpha virt. eigenvalues --    2.27231   2.33086   2.38975   2.63016   2.80344
 Alpha virt. eigenvalues --    2.84504   3.20899   3.24545   3.38039   3.46954
 Alpha virt. eigenvalues --    3.61919   3.70888   3.73005   3.94132   4.01460
 Alpha virt. eigenvalues --    4.01598   4.09434   4.42891   4.56626   4.59399
 Alpha virt. eigenvalues --    4.60470   4.67926   4.69122   4.77871   4.78052
 Alpha virt. eigenvalues --    4.88488   5.29783   5.33724   6.28894  23.97809
 Alpha virt. eigenvalues --   35.29127  36.18125
     Molecular Orbital Coefficients:
                           1         2         3         4         5
                           O         O         O         O         O
     Eigenvalues --   -14.51407 -14.44816 -10.24818  -1.17616  -0.79505
   1 1   N  1S          0.55750  -0.00791  -0.00002  -0.09495   0.05110
   2        2S          0.46566  -0.00637  -0.00007  -0.14971   0.08220
   3        2PX         0.00000   0.00000   0.00000   0.00051   0.00107
   4        2PY         0.00015   0.00080   0.00005   0.10554   0.15458
   5        2PZ         0.00000   0.00000   0.00000   0.00000   0.00000
   6        3S          0.01579   0.00060   0.00158   0.41174  -0.22823
   7        3PX         0.00002  -0.00002  -0.00001   0.00062   0.00157
   8        3PY         0.00350  -0.00412  -0.00132   0.12945   0.22368
   9        3PZ         0.00000   0.00000   0.00000   0.00000   0.00000
  10        4S          0.00474  -0.00895  -0.00841   0.15597  -0.28704
  11        4PX         0.00004   0.00004  -0.00001  -0.00007   0.00078
  12        4PY         0.00723   0.00690  -0.00358  -0.00010   0.07926
  13        4PZ         0.00000   0.00000   0.00000   0.00000   0.00000
  14        5S          0.02737   0.00702  -0.01559  -0.07259   0.36192
  15        5PX         0.00008   0.00004  -0.00004  -0.00022   0.00089
  16        5PY         0.00983   0.00482  -0.01565  -0.01469   0.07377
  17        5PZ         0.00000   0.00000   0.00000   0.00000   0.00000
  18        6D 0       -0.00050   0.00004  -0.00028  -0.00903  -0.00125
  19        6D+1        0.00000   0.00000   0.00000   0.00000   0.00000
  20        6D-1        0.00000   0.00000   0.00000   0.00000   0.00000
  21        6D+2       -0.00075   0.00008  -0.00035  -0.01517  -0.00227
  22        6D-2        0.00001   0.00000   0.00001   0.00015   0.00001
  23        7D 0       -0.00075   0.00273   0.00214  -0.00674   0.01278
  24        7D+1        0.00000   0.00000   0.00000   0.00000   0.00000
  25        7D-1        0.00000   0.00000   0.00000   0.00000   0.00000
  26        7D+2       -0.00158   0.00473   0.00311  -0.00755   0.01906
  27        7D-2        0.00001  -0.00005  -0.00006   0.00008  -0.00021
  28 2   N  1S          0.00769   0.55745   0.00001  -0.08605  -0.04258
  29        2S          0.00674   0.46567  -0.00018  -0.13519  -0.06875
  30        2PX         0.00000  -0.00001   0.00000  -0.00055  -0.00004
  31        2PY        -0.00074  -0.00175   0.00009  -0.11232  -0.02961
  32        2PZ         0.00000   0.00000   0.00000   0.00000   0.00000
  33        3S         -0.00082   0.01766   0.00246   0.36635   0.20861
  34        3PX         0.00002  -0.00002   0.00000  -0.00072  -0.00004
  35        3PY         0.00397  -0.00413  -0.00188  -0.14514  -0.04266
  36        3PZ         0.00000   0.00000   0.00000   0.00000   0.00000
  37        4S         -0.01396  -0.00905   0.00633   0.18914   0.16143
  38        4PX         0.00003   0.00001   0.00000  -0.00021  -0.00012
  39        4PY         0.00673   0.00230  -0.00249  -0.04748  -0.02009
  40        4PZ         0.00000   0.00000   0.00000   0.00000   0.00000
  41        5S         -0.02542  -0.00507   0.02848   0.02893  -0.30760
  42        5PX         0.00001   0.00000  -0.00006   0.00006   0.00013
  43        5PY         0.00472  -0.00006  -0.00505  -0.00034   0.07979
  44        5PZ         0.00000   0.00000   0.00000   0.00000   0.00000
  45        6D 0        0.00019  -0.00056  -0.00005  -0.00939  -0.00316
  46        6D+1        0.00000   0.00000   0.00000   0.00000   0.00000
  47        6D-1        0.00000   0.00000   0.00000   0.00000   0.00000
  48        6D+2        0.00032  -0.00093  -0.00012  -0.01541  -0.00514
  49        6D-2        0.00000   0.00001   0.00000   0.00015   0.00003
  50        7D 0        0.00142  -0.00019  -0.00021  -0.00776   0.00040
  51        7D+1        0.00000   0.00000   0.00000   0.00000   0.00000
  52        7D-1        0.00000   0.00000   0.00000   0.00000   0.00000
  53        7D+2        0.00255  -0.00038  -0.00017  -0.01167   0.00199
  54        7D-2       -0.00003   0.00000  -0.00001   0.00011  -0.00002
  55 3   C  1S          0.00001   0.00004   0.56341  -0.00853   0.08246
  56        2S         -0.00001  -0.00023   0.46331  -0.01324   0.12853
  57        2PX         0.00000   0.00000   0.00006  -0.00003   0.00232
  58        2PY         0.00021  -0.00039   0.00141   0.01065  -0.04981
  59        2PZ         0.00000   0.00000   0.00000   0.00000   0.00000
  60        3S          0.00005   0.00106   0.01743   0.03015  -0.33589
  61        3PX        -0.00007   0.00005  -0.00057   0.00024   0.00159
  62        3PY        -0.00067   0.00335  -0.00059   0.01868  -0.07751
  63        3PZ         0.00000   0.00000   0.00000   0.00000   0.00000
  64        4S          0.00442   0.00869  -0.00943  -0.00028  -0.18101
  65        4PX        -0.00005   0.00001  -0.00019   0.00028  -0.00055
  66        4PY         0.00109   0.00425  -0.00285   0.00041  -0.02151
  67        4PZ         0.00000   0.00000   0.00000   0.00000   0.00000
  68        5S         -0.00185  -0.00138  -0.00757   0.02588  -0.04286
  69        5PX        -0.00001  -0.00002   0.00006   0.00012  -0.00019
  70        5PY        -0.00127  -0.00137  -0.00156   0.01236  -0.01441
  71        5PZ         0.00000   0.00000   0.00000   0.00000   0.00000
  72        6D 0        0.00000  -0.00014  -0.00087  -0.00200   0.00887
  73        6D+1        0.00000   0.00000   0.00000   0.00000   0.00000
  74        6D-1        0.00000   0.00000   0.00000   0.00000   0.00000
  75        6D+2        0.00008  -0.00033  -0.00008  -0.00317   0.00727
  76        6D-2        0.00000   0.00000   0.00010   0.00003  -0.00025
  77        7D 0       -0.00020  -0.00077  -0.00104  -0.00037   0.00687
  78        7D+1        0.00000   0.00000   0.00000   0.00000   0.00000
  79        7D-1        0.00000   0.00000   0.00000   0.00000   0.00000
  80        7D+2        0.00086  -0.00134   0.00130  -0.00613   0.01286
  81        7D-2        0.00000   0.00000   0.00014  -0.00001   0.00044
  82 4   H  1S          0.00002   0.00009   0.00019   0.00212  -0.04567
  83        2S         -0.00114  -0.00013  -0.00314   0.00698  -0.06112
  84        3S          0.00083   0.00049   0.00086  -0.00358   0.00783
  85        4PX         0.00014  -0.00015   0.00142  -0.00092   0.00835
  86        4PY        -0.00034   0.00001  -0.00104   0.00173  -0.00766
  87        4PZ         0.00000   0.00000   0.00000   0.00000   0.00000
  88 5   H  1S          0.00000   0.00010   0.00009   0.00246  -0.05105
  89        2S         -0.00129  -0.00008  -0.00418   0.00771  -0.06745
  90        3S          0.00084   0.00046   0.00116  -0.00351   0.00765
  91        4PX        -0.00017   0.00017  -0.00178   0.00102  -0.00921
  92        4PY        -0.00034   0.00001  -0.00120   0.00170  -0.00788
  93        4PZ         0.00000   0.00000   0.00000   0.00000   0.00000
                           6         7         8         9        10
                           O         O         O         O         O
     Eigenvalues --    -0.57635  -0.52513  -0.51156  -0.48270  -0.42869
   1 1   N  1S         -0.05114   0.00185   0.00000   0.01670   0.00051
   2        2S         -0.08325   0.00302   0.00000   0.02798   0.00082
   3        2PX         0.00517   0.20731   0.00000  -0.00458  -0.07954
   4        2PY        -0.07450  -0.00063   0.00000  -0.13713   0.00325
   5        2PZ         0.00000   0.00000   0.22132   0.00000   0.00000
   6        3S          0.24661  -0.00926   0.00000  -0.09853  -0.00243
   7        3PX         0.00799   0.31845   0.00000  -0.00692  -0.12129
   8        3PY        -0.11122  -0.00078   0.00000  -0.19563   0.00465
   9        3PZ         0.00000   0.00000   0.33887   0.00000   0.00000
  10        4S          0.32155  -0.01198   0.00000  -0.06767  -0.00291
  11        4PX         0.00489   0.19821   0.00000  -0.00470  -0.08086
  12        4PY        -0.03165  -0.00069   0.00000  -0.16459   0.00558
  13        4PZ         0.00000   0.00000   0.20972   0.00000   0.00000
  14        5S         -0.40737   0.01556   0.00000   0.02206   0.02156
  15        5PX        -0.00059   0.00365   0.00000  -0.00033  -0.01782
  16        5PY        -0.14811   0.00772   0.00000  -0.01231   0.01335
  17        5PZ         0.00000   0.00000  -0.00320   0.00000   0.00000
  18        6D 0        0.00076   0.00004   0.00000   0.00437  -0.00007
  19        6D+1        0.00000   0.00000   0.00007   0.00000   0.00000
  20        6D-1        0.00000   0.00000   0.01435   0.00000   0.00000
  21        6D+2        0.00150   0.00016   0.00000   0.00741  -0.00022
  22        6D-2        0.00013   0.01165   0.00000  -0.00041  -0.01095
  23        7D 0       -0.00361  -0.00009   0.00000  -0.00704  -0.00001
  24        7D+1        0.00000   0.00000   0.00005   0.00000   0.00000
  25        7D-1        0.00000   0.00000   0.01597   0.00000   0.00000
  26        7D+2       -0.00490  -0.00003   0.00000  -0.01307  -0.00052
  27        7D-2        0.00000   0.01804   0.00000  -0.00066  -0.03245
  28 2   N  1S          0.04485  -0.00229   0.00000  -0.06710   0.00034
  29        2S          0.07288  -0.00372   0.00000  -0.10855   0.00054
  30        2PX         0.00322   0.15922   0.00000  -0.00267  -0.10554
  31        2PY        -0.03829   0.00339   0.00000   0.21870  -0.00196
  32        2PZ         0.00000   0.00000   0.18220   0.00000   0.00000
  33        3S         -0.21741   0.01074   0.00000   0.30253  -0.00150
  34        3PX         0.00506   0.24409   0.00000  -0.00418  -0.15763
  35        3PY        -0.04968   0.00455   0.00000   0.30251  -0.00253
  36        3PZ         0.00000   0.00000   0.27914   0.00000   0.00000
  37        4S         -0.26824   0.01481   0.00000   0.53848  -0.00599
  38        4PX         0.00302   0.15181   0.00000  -0.00310  -0.11222
  39        4PY        -0.01157   0.00162   0.00000   0.12594  -0.00007
  40        4PZ         0.00000   0.00000   0.17739   0.00000   0.00000
  41        5S          0.42328  -0.01830   0.00000   0.03939  -0.02974
  42        5PX        -0.00066   0.00199   0.00000  -0.00002  -0.00413
  43        5PY        -0.10543   0.00455   0.00000   0.02157   0.00574
  44        5PZ         0.00000   0.00000   0.00933   0.00000   0.00000
  45        6D 0       -0.00042   0.00013   0.00000   0.00856  -0.00010
  46        6D+1        0.00000   0.00000  -0.00009   0.00000   0.00000
  47        6D-1        0.00000   0.00000  -0.01847   0.00000   0.00000
  48        6D+2       -0.00119   0.00009   0.00000   0.01557  -0.00010
  49        6D-2       -0.00040  -0.01693   0.00000   0.00020   0.00860
  50        7D 0       -0.00174   0.00011   0.00000   0.00296  -0.00002
  51        7D+1        0.00000   0.00000  -0.00019   0.00000   0.00000
  52        7D-1        0.00000   0.00000  -0.03873   0.00000   0.00000
  53        7D+2       -0.00450  -0.00009   0.00000   0.00795   0.00013
  54        7D-2       -0.00085  -0.03470   0.00000   0.00059   0.01406
  55 3   C  1S          0.06644  -0.00272   0.00000   0.00699  -0.00188
  56        2S          0.10482  -0.00436   0.00000   0.01132  -0.00314
  57        2PX         0.01125   0.08806   0.00000   0.00361   0.18929
  58        2PY         0.12231  -0.00387   0.00000   0.07335  -0.00462
  59        2PZ         0.00000   0.00000   0.03973   0.00000   0.00000
  60        3S         -0.27873   0.01228   0.00000  -0.02837   0.00924
  61        3PX         0.01282   0.12141   0.00000   0.00390   0.25378
  62        3PY         0.16969  -0.00622   0.00000   0.09621  -0.00817
  63        3PZ         0.00000   0.00000   0.06588   0.00000   0.00000
  64        4S         -0.25639   0.01516   0.00000  -0.08319   0.02006
  65        4PX         0.00461   0.05061   0.00000   0.00213   0.16752
  66        4PY         0.06886  -0.00176   0.00000   0.02752  -0.00360
  67        4PZ         0.00000   0.00000   0.04023   0.00000   0.00000
  68        5S         -0.02015   0.00293   0.00000  -0.00442   0.00535
  69        5PX         0.00063   0.01530   0.00000   0.00011   0.02049
  70        5PY         0.00732  -0.00015   0.00000   0.00632   0.00024
  71        5PZ         0.00000   0.00000   0.00837   0.00000   0.00000
  72        6D 0        0.00242  -0.00002   0.00000  -0.00031   0.00010
  73        6D+1        0.00000   0.00000   0.00000   0.00000   0.00000
  74        6D-1        0.00000   0.00000   0.00623   0.00000   0.00000
  75        6D+2       -0.01291   0.00019   0.00000  -0.00589  -0.00018
  76        6D-2       -0.00041   0.00115   0.00000  -0.00024  -0.01185
  77        7D 0        0.00207  -0.00020   0.00000   0.00125  -0.00063
  78        7D+1        0.00000   0.00000   0.00006   0.00000   0.00000
  79        7D-1        0.00000   0.00000   0.01777   0.00000   0.00000
  80        7D+2       -0.00900   0.00017   0.00000  -0.00008   0.00050
  81        7D-2        0.00174   0.03465   0.00000  -0.00031  -0.00346
  82 4   H  1S         -0.10117   0.05656   0.00000  -0.03473   0.14181
  83        2S         -0.13420   0.10436   0.00000  -0.05006   0.22233
  84        3S         -0.02309   0.00724   0.00000  -0.01375   0.06276
  85        4PX         0.01644  -0.00962   0.00000   0.00599  -0.01393
  86        4PY        -0.00387   0.00467   0.00000  -0.00002   0.01469
  87        4PZ         0.00000   0.00000   0.00339   0.00000   0.00000
  88 5   H  1S         -0.11648  -0.05027   0.00000  -0.03935  -0.13690
  89        2S         -0.15364  -0.09354   0.00000  -0.05534  -0.21141
  90        3S         -0.02477  -0.00540   0.00000  -0.01472  -0.05618
  91        4PX        -0.01852  -0.00824   0.00000  -0.00650  -0.01311
  92        4PY        -0.00451  -0.00341   0.00000  -0.00024  -0.01457
  93        4PZ         0.00000   0.00000   0.00346   0.00000   0.00000
                          11        12        13        14        15
                           O         V         V         V         V
     Eigenvalues --    -0.22299  -0.05014  -0.01252   0.01078   0.04794
   1 1   N  1S          0.00000  -0.00064   0.00000   0.01218   0.03011
   2        2S          0.00000  -0.00106   0.00000   0.02019   0.05096
   3        2PX         0.00000  -0.20689   0.00000  -0.00570  -0.00282
   4        2PY         0.00000  -0.00058   0.00000   0.03206   0.06168
   5        2PZ         0.04768   0.00000   0.21728   0.00000   0.00000
   6        3S          0.00000   0.00338   0.00000  -0.06669  -0.18468
   7        3PX         0.00000  -0.32661   0.00000  -0.00863  -0.00395
   8        3PY         0.00000  -0.00062   0.00000   0.04218   0.08277
   9        3PZ         0.07641   0.00000   0.34031   0.00000   0.00000
  10        4S          0.00000   0.00759   0.00000  -0.11929  -0.36576
  11        4PX         0.00000  -0.39520   0.00000  -0.01511  -0.00924
  12        4PY         0.00000   0.00681   0.00000  -0.34415   0.06844
  13        4PZ         0.09508   0.00000   0.41800   0.00000   0.00000
  14        5S          0.00000   0.11050   0.00000  -7.15850  -0.58327
  15        5PX         0.00000  -0.35957   0.00000  -0.02275   0.01949
  16        5PY         0.00000   0.06054   0.00000  -4.37945   1.23097
  17        5PZ         0.01438   0.00000   0.51231   0.00000   0.00000
  18        6D 0        0.00000   0.00013   0.00000  -0.00476  -0.00225
  19        6D+1       -0.00006   0.00000  -0.00003   0.00000   0.00000
  20        6D-1       -0.01363   0.00000  -0.00530   0.00000   0.00000
  21        6D+2        0.00000   0.00035   0.00000  -0.00824  -0.00362
  22        6D-2        0.00000   0.01212   0.00000   0.00017   0.00003
  23        7D 0        0.00000   0.00030   0.00000  -0.02896   0.00249
  24        7D+1       -0.00040   0.00000  -0.00007   0.00000   0.00000
  25        7D-1       -0.06408   0.00000  -0.02073   0.00000   0.00000
  26        7D+2        0.00000   0.00128   0.00000  -0.05696   0.00083
  27        7D-2        0.00000   0.04862   0.00000   0.00065  -0.00030
  28 2   N  1S          0.00000   0.00033   0.00000  -0.01995   0.00839
  29        2S          0.00000   0.00055   0.00000  -0.03273   0.01409
  30        2PX         0.00000   0.22376   0.00000   0.00436   0.00198
  31        2PY         0.00000  -0.00001   0.00000  -0.02302  -0.04841
  32        2PZ        -0.14730   0.00000  -0.17827   0.00000   0.00000
  33        3S          0.00000  -0.00160   0.00000   0.09024  -0.05581
  34        3PX         0.00000   0.34296   0.00000   0.00706   0.00335
  35        3PY         0.00000  -0.00013   0.00000  -0.02933  -0.06157
  36        3PZ        -0.21540   0.00000  -0.27569   0.00000   0.00000
  37        4S          0.00000  -0.00850   0.00000   0.47978   0.00133
  38        4PX         0.00000   0.43113   0.00000   0.00910   0.00488
  39        4PY         0.00000   0.00222   0.00000  -0.15004  -0.17727
  40        4PZ        -0.21607   0.00000  -0.37216   0.00000   0.00000
  41        5S          0.00000  -0.13508   0.00000   9.66635  -1.97768
  42        5PX         0.00000   0.35909   0.00000  -0.00133   0.00067
  43        5PY         0.00000   0.02731   0.00000  -2.12699   0.51763
  44        5PZ        -0.06049   0.00000  -0.45330   0.00000   0.00000
  45        6D 0        0.00000   0.00004   0.00000  -0.00126   0.00002
  46        6D+1        0.00001   0.00000  -0.00004   0.00000   0.00000
  47        6D-1        0.00310   0.00000  -0.00863   0.00000   0.00000
  48        6D+2        0.00000   0.00012   0.00000  -0.00192  -0.00029
  49        6D-2        0.00000   0.00561   0.00000   0.00028   0.00017
  50        7D 0        0.00000   0.00007   0.00000  -0.00321  -0.00149
  51        7D+1       -0.00001   0.00000  -0.00013   0.00000   0.00000
  52        7D-1       -0.00539   0.00000  -0.02479   0.00000   0.00000
  53        7D+2        0.00000   0.00034   0.00000  -0.00629  -0.00027
  54        7D-2        0.00000   0.02154   0.00000   0.00057   0.00011
  55 3   C  1S          0.00000   0.00188   0.00000  -0.05138  -0.02367
  56        2S          0.00000   0.00304   0.00000  -0.08625  -0.03829
  57        2PX         0.00000   0.00090   0.00000   0.00491   0.00459
  58        2PY         0.00000   0.00011   0.00000   0.02925   0.03675
  59        2PZ         0.22336   0.00000  -0.11622   0.00000   0.00000
  60        3S          0.00000  -0.00961   0.00000   0.32672   0.08623
  61        3PX         0.00000  -0.00550   0.00000   0.00735   0.00427
  62        3PY         0.00000  -0.00032   0.00000   0.03097   0.03514
  63        3PZ         0.34175   0.00000  -0.17640   0.00000   0.00000
  64        4S          0.00000  -0.00561   0.00000  -0.18432   0.56002
  65        4PX         0.00000  -0.05962   0.00000   0.00986   0.01478
  66        4PY         0.00000   0.00738   0.00000  -0.39786   0.20730
  67        4PZ         0.37500   0.00000  -0.28765   0.00000   0.00000
  68        5S          0.00000   0.02607   0.00000  -2.99752   2.06539
  69        5PX         0.00000   0.09268   0.00000  -0.00867  -0.00795
  70        5PY         0.00000  -0.00080   0.00000  -0.34009   1.91883
  71        5PZ         0.08608   0.00000  -0.41461   0.00000   0.00000
  72        6D 0        0.00000  -0.00014   0.00000   0.00094   0.00467
  73        6D+1       -0.00018   0.00000   0.00016   0.00000   0.00000
  74        6D-1        0.00516   0.00000   0.00987   0.00000   0.00000
  75        6D+2        0.00000  -0.00024   0.00000  -0.00115   0.00907
  76        6D-2        0.00000  -0.01609   0.00000  -0.00012   0.00009
  77        7D 0        0.00000  -0.00089   0.00000   0.02677   0.00364
  78        7D+1        0.00013   0.00000   0.00002   0.00000   0.00000
  79        7D-1        0.00716   0.00000   0.03604   0.00000   0.00000
  80        7D+2        0.00000  -0.00130   0.00000   0.06661   0.05572
  81        7D-2        0.00000  -0.04017   0.00000  -0.00194  -0.00016
  82 4   H  1S          0.00000   0.04804   0.00000  -0.00922  -0.00617
  83        2S          0.00000   0.10268   0.00000  -0.07097  -0.08674
  84        3S          0.00000   0.18314   0.00000  -0.18549   0.10621
  85        4PX         0.00000  -0.00057   0.00000  -0.01320   0.00689
  86        4PY         0.00000  -0.00274   0.00000   0.01105   0.01107
  87        4PZ         0.02111   0.00000  -0.01671   0.00000   0.00000
  88 5   H  1S          0.00000  -0.04494   0.00000  -0.00877  -0.00547
  89        2S          0.00000  -0.09420   0.00000  -0.06645  -0.08688
  90        3S          0.00000  -0.16104   0.00000  -0.18740   0.12380
  91        4PX         0.00000  -0.00147   0.00000   0.01311  -0.00785
  92        4PY         0.00000   0.00200   0.00000   0.00995   0.00966
  93        4PZ         0.02209   0.00000  -0.01707   0.00000   0.00000
                          16        17        18        19        20
                           V         V         V         V         V
     Eigenvalues --     0.05305   0.08028   0.08463   0.11800   0.12508
   1 1   N  1S          0.00010   0.00000  -0.04043   0.02281  -0.00478
   2        2S          0.00017   0.00000  -0.06737   0.03766  -0.00786
   3        2PX         0.00676   0.00000   0.00160  -0.01094  -0.05557
   4        2PY         0.00026   0.00000  -0.06161   0.08136  -0.01590
   5        2PZ         0.00000   0.04836   0.00000   0.00000   0.00000
   6        3S         -0.00053   0.00000   0.20857  -0.08882   0.01749
   7        3PX        -0.00167   0.00000   0.00232  -0.01343  -0.05834
   8        3PY         0.00023   0.00000  -0.09737   0.06918  -0.01273
   9        3PZ         0.00000   0.06171   0.00000   0.00000   0.00000
  10        4S         -0.00039   0.00000  -0.02569  -1.32548   0.23830
  11        4PX         0.10078   0.00000   0.00057  -0.03418  -0.17250
  12        4PY         0.01064   0.00000  -0.75670  -0.36122  -0.00209
  13        4PZ         0.00000   0.23507   0.00000   0.00000   0.00000
  14        5S          0.16887   0.00000  10.61151  12.00276  -2.59081
  15        5PX        -0.82854   0.00000   0.02549   0.05009   0.39183
  16        5PY         0.12437   0.00000   2.55990   3.34447  -0.87515
  17        5PZ         0.00000  -0.61849   0.00000   0.00000   0.00000
  18        6D 0       -0.00004   0.00000   0.00724  -0.00928   0.00210
  19        6D+1        0.00000  -0.00001   0.00000   0.00000   0.00000
  20        6D-1        0.00000  -0.00184   0.00000   0.00000   0.00000
  21        6D+2       -0.00004   0.00000   0.01392  -0.01757   0.00362
  22        6D-2       -0.00299   0.00000   0.00004  -0.00154  -0.01098
  23        7D 0       -0.00024   0.00000   0.02737   0.01708  -0.00094
  24        7D+1        0.00000   0.00007   0.00000   0.00000   0.00000
  25        7D-1        0.00000   0.01213   0.00000   0.00000   0.00000
  26        7D+2       -0.00002   0.00000   0.05462   0.01380  -0.00200
  27        7D-2        0.00909   0.00000  -0.00078  -0.00063  -0.00264
  28 2   N  1S          0.00005   0.00000   0.03494  -0.00269   0.00194
  29        2S          0.00009   0.00000   0.05855  -0.00530   0.00338
  30        2PX        -0.04846   0.00000   0.00005  -0.00993  -0.07882
  31        2PY        -0.00010   0.00000   0.02812  -0.08666   0.01669
  32        2PZ         0.00000  -0.07817   0.00000   0.00000   0.00000
  33        3S         -0.00045   0.00000  -0.20409   0.01168  -0.01034
  34        3PX        -0.07766   0.00000  -0.00014  -0.01039  -0.08534
  35        3PY         0.00013   0.00000   0.02954  -0.16117   0.03063
  36        3PZ         0.00000  -0.11519   0.00000   0.00000   0.00000
  37        4S         -0.00849   0.00000   0.38061   0.87284  -0.12528
  38        4PX        -0.12150   0.00000  -0.00187  -0.03979  -0.29691
  39        4PY         0.00409   0.00000  -0.43216  -0.63614   0.08325
  40        4PZ         0.00000  -0.24390   0.00000   0.00000   0.00000
  41        5S         -0.25609   0.00000  -8.89247 -11.65443   2.76765
  42        5PX         0.43784   0.00000  -0.00070   0.16771   0.96546
  43        5PY         0.05155   0.00000   3.09359   4.13795  -0.88310
  44        5PZ         0.00000   0.44017   0.00000   0.00000   0.00000
  45        6D 0       -0.00002   0.00000   0.00206  -0.00346   0.00085
  46        6D+1        0.00000  -0.00001   0.00000   0.00000   0.00000
  47        6D-1        0.00000  -0.00176   0.00000   0.00000   0.00000
  48        6D+2       -0.00001   0.00000   0.00299  -0.00602   0.00151
  49        6D-2        0.00115   0.00000  -0.00019   0.00143   0.00803
  50        7D 0        0.00003   0.00000  -0.02926  -0.03281   0.00529
  51        7D+1        0.00000   0.00005   0.00000   0.00000   0.00000
  52        7D-1        0.00000   0.01025   0.00000   0.00000   0.00000
  53        7D+2        0.00027   0.00000  -0.04835  -0.06204   0.00974
  54        7D-2        0.00933   0.00000  -0.00006   0.00489   0.02644
  55 3   C  1S          0.00021   0.00000   0.02782  -0.04542   0.00591
  56        2S          0.00024   0.00000   0.04509  -0.07398   0.00971
  57        2PX        -0.07482   0.00000  -0.00341   0.01527   0.06500
  58        2PY         0.00170   0.00000  -0.14364   0.10502  -0.03062
  59        2PZ         0.00000  -0.13791   0.00000   0.00000   0.00000
  60        3S          0.00091   0.00000  -0.12022   0.18552  -0.02358
  61        3PX        -0.15425   0.00000  -0.00663   0.02027   0.08126
  62        3PY         0.00138   0.00000  -0.23994   0.19384  -0.05168
  63        3PZ         0.00000  -0.17678   0.00000   0.00000   0.00000
  64        4S         -0.00673   0.00000  -0.74308   1.00073  -0.15551
  65        4PX        -0.03287   0.00000  -0.01180   0.07508   0.39842
  66        4PY         0.02360   0.00000  -0.75638   0.15319  -0.14806
  67        4PZ         0.00000  -0.47924   0.00000   0.00000   0.00000
  68        5S          0.02587   0.00000  -1.65717   0.93062  -0.14879
  69        5PX         1.77753   0.00000  -0.01701  -0.03562  -0.49875
  70        5PY         0.02220   0.00000  -0.10902  -0.80477   0.04729
  71        5PZ         0.00000   1.35154   0.00000   0.00000   0.00000
  72        6D 0       -0.00037   0.00000  -0.01083   0.00598  -0.00029
  73        6D+1        0.00000   0.00017   0.00000   0.00000   0.00000
  74        6D-1        0.00000   0.00059   0.00000   0.00000   0.00000
  75        6D+2        0.00065   0.00000  -0.00964  -0.00114  -0.00127
  76        6D-2        0.00311   0.00000   0.00022   0.00112   0.00665
  77        7D 0       -0.00078   0.00000  -0.00843   0.02648   0.00061
  78        7D+1        0.00000   0.00043   0.00000   0.00000   0.00000
  79        7D-1        0.00000   0.00148   0.00000   0.00000   0.00000
  80        7D+2        0.00011   0.00000   0.01178  -0.00750   0.00396
  81        7D-2        0.01701   0.00000  -0.00066   0.00627   0.03308
  82 4   H  1S         -0.02800   0.00000   0.04109  -0.05487  -0.01556
  83        2S          0.05108   0.00000   0.00568  -0.06322  -0.05825
  84        3S         -0.55241   0.00000   0.49102  -0.86077  -0.52157
  85        4PX         0.00936   0.00000  -0.00952  -0.00255  -0.01070
  86        4PY        -0.00485   0.00000  -0.01296   0.01166   0.00935
  87        4PZ         0.00000  -0.00350   0.00000   0.00000   0.00000
  88 5   H  1S          0.03228   0.00000   0.03901  -0.04552   0.01757
  89        2S         -0.04732   0.00000  -0.00196  -0.04196   0.05196
  90        3S          0.62295   0.00000   0.46755  -0.65861   0.45964
  91        4PX         0.00785   0.00000   0.00858  -0.00009  -0.00715
  92        4PY         0.00491   0.00000  -0.01380   0.00771  -0.01448
  93        4PZ         0.00000  -0.00445   0.00000   0.00000   0.00000
                          21        22        23        24        25
                           V         V         V         V         V
     Eigenvalues --     0.13731   0.15395   0.20927   0.21278   0.22106
   1 1   N  1S          0.00000  -0.00291  -0.00553   0.04062   0.00000
   2        2S          0.00000  -0.00421  -0.00907   0.06615   0.00000
   3        2PX         0.00000  -0.00211  -0.12023  -0.01467   0.00000
   4        2PY         0.00000  -0.02666  -0.00577   0.04996   0.00000
   5        2PZ        -0.02339   0.00000   0.00000   0.00000  -0.10712
   6        3S          0.00000  -0.02228   0.02515  -0.16710   0.00000
   7        3PX         0.00000  -0.00627  -0.15811  -0.01844   0.00000
   8        3PY         0.00000  -0.00211  -0.00789   0.05488   0.00000
   9        3PZ        -0.00815   0.00000   0.00000   0.00000  -0.12673
  10        4S          0.00000   0.29234   0.24248  -1.92953   0.00000
  11        4PX         0.00000  -0.00536  -0.59181  -0.07829   0.00000
  12        4PY         0.00000  -0.70104   0.08602  -0.32458   0.00000
  13        4PZ        -0.06590   0.00000   0.00000   0.00000  -0.56185
  14        5S          0.00000 -14.63843   1.79482  -7.17796   0.00000
  15        5PX         0.00000  -0.10736   3.19713   0.42890   0.00000
  16        5PY         0.00000  -6.43233   1.07968  -5.83561   0.00000
  17        5PZ         0.39055   0.00000   0.00000   0.00000   3.98532
  18        6D 0        0.00000   0.00618  -0.00020   0.00159   0.00000
  19        6D+1       -0.00005   0.00000   0.00000   0.00000   0.00002
  20        6D-1       -0.01060   0.00000   0.00000   0.00000   0.00319
  21        6D+2        0.00000   0.00845  -0.00002   0.00180   0.00000
  22        6D-2        0.00000   0.00079   0.00222   0.00024   0.00000
  23        7D 0        0.00000   0.01390  -0.00134   0.01076   0.00000
  24        7D+1        0.00001   0.00000   0.00000   0.00000  -0.00015
  25        7D-1        0.00473   0.00000   0.00000   0.00000  -0.02937
  26        7D+2        0.00000  -0.02120  -0.00259   0.03854   0.00000
  27        7D-2        0.00000  -0.00071  -0.02387  -0.00321   0.00000
  28 2   N  1S          0.00000   0.01309  -0.00230   0.01667   0.00000
  29        2S          0.00000   0.02194  -0.00351   0.02534   0.00000
  30        2PX         0.00000   0.01258   0.08103   0.00825   0.00000
  31        2PY         0.00000   0.01849   0.00661  -0.04423   0.00000
  32        2PZ        -0.10536   0.00000   0.00000   0.00000   0.04263
  33        3S          0.00000  -0.07236   0.00767  -0.05142   0.00000
  34        3PX         0.00000   0.01544   0.09964   0.00972   0.00000
  35        3PY         0.00000   0.04660   0.01232  -0.09433   0.00000
  36        3PZ        -0.12012   0.00000   0.00000   0.00000   0.04977
  37        4S          0.00000   0.10063  -0.02322   0.02534   0.00000
  38        4PX         0.00000   0.04632   0.45087   0.04847   0.00000
  39        4PY         0.00000  -0.23218   0.09709  -0.61308   0.00000
  40        4PZ        -0.40861   0.00000   0.00000   0.00000   0.32190
  41        5S          0.00000  17.86578  -2.92401  15.16771   0.00000
  42        5PX         0.00000  -0.12586  -2.55006  -0.35100   0.00000
  43        5PY         0.00000  -4.52491   0.71854  -3.68403   0.00000
  44        5PZ         1.15716   0.00000   0.00000   0.00000  -2.63082
  45        6D 0        0.00000   0.00410  -0.00073   0.00484   0.00000
  46        6D+1        0.00003   0.00000   0.00000   0.00000   0.00002
  47        6D-1        0.00626   0.00000   0.00000   0.00000   0.00501
  48        6D+2        0.00000   0.00637  -0.00117   0.00816   0.00000
  49        6D-2        0.00000  -0.00042   0.00542   0.00062   0.00000
  50        7D 0        0.00000   0.00832   0.00162  -0.01584   0.00000
  51        7D+1        0.00014   0.00000   0.00000   0.00000  -0.00019
  52        7D-1        0.02930   0.00000   0.00000   0.00000  -0.03813
  53        7D+2        0.00000   0.00519   0.00282  -0.02333   0.00000
  54        7D-2        0.00000  -0.00226  -0.03336  -0.00414   0.00000
  55 3   C  1S          0.00000  -0.02317   0.00165  -0.00008   0.00000
  56        2S          0.00000  -0.03676   0.00284  -0.00295   0.00000
  57        2PX         0.00000   0.00433   0.04399   0.00230   0.00000
  58        2PY         0.00000  -0.12394  -0.01052   0.08554   0.00000
  59        2PZ         0.01384   0.00000   0.00000   0.00000  -0.03839
  60        3S          0.00000   0.10489  -0.01417   0.07646   0.00000
  61        3PX         0.00000   0.00491   0.03492   0.00465   0.00000
  62        3PY         0.00000  -0.18546  -0.02079   0.15427   0.00000
  63        3PZ         0.01861   0.00000   0.00000   0.00000  -0.02304
  64        4S          0.00000   0.34468   0.11448  -1.25820   0.00000
  65        4PX         0.00000  -0.01505   0.19486   0.01052   0.00000
  66        4PY         0.00000  -1.48337   0.02424   0.28881   0.00000
  67        4PZ         0.06655   0.00000   0.00000   0.00000  -0.32513
  68        5S          0.00000  -0.11422   0.68815  -5.67276   0.00000
  69        5PX         0.00000   0.14888  -0.25693  -0.10152   0.00000
  70        5PY         0.00000  -0.93880   0.33145  -2.44570   0.00000
  71        5PZ        -0.84953   0.00000   0.00000   0.00000  -1.17520
  72        6D 0        0.00000   0.00952  -0.00105   0.00470   0.00000
  73        6D+1       -0.00001   0.00000   0.00000   0.00000   0.00005
  74        6D-1        0.00272   0.00000   0.00000   0.00000   0.00039
  75        6D+2        0.00000  -0.01666  -0.00048   0.01103   0.00000
  76        6D-2        0.00000   0.00047   0.00531   0.00002   0.00000
  77        7D 0        0.00000   0.06790  -0.00662   0.01367   0.00000
  78        7D+1       -0.00006   0.00000   0.00000   0.00000  -0.00001
  79        7D-1        0.03594   0.00000   0.00000   0.00000   0.00798
  80        7D+2        0.00000   0.05601  -0.00356   0.01358   0.00000
  81        7D-2        0.00000   0.00111   0.06682   0.00541   0.00000
  82 4   H  1S          0.00000  -0.07030  -0.02797  -0.00024   0.00000
  83        2S          0.00000  -0.11646   0.04507   0.07054   0.00000
  84        3S          0.00000  -2.29785  -0.91261   0.32540   0.00000
  85        4PX         0.00000  -0.02478  -0.00996   0.00401   0.00000
  86        4PY         0.00000  -0.01005   0.01875   0.01875   0.00000
  87        4PZ        -0.00463   0.00000   0.00000   0.00000  -0.00142
  88 5   H  1S          0.00000  -0.06369   0.02933   0.00494   0.00000
  89        2S          0.00000  -0.12725  -0.07015   0.07065   0.00000
  90        3S          0.00000  -2.23805   1.06960   0.48719   0.00000
  91        4PX         0.00000   0.02394  -0.01192  -0.00422   0.00000
  92        4PY         0.00000  -0.01151  -0.02246   0.01543   0.00000
  93        4PZ        -0.00411   0.00000   0.00000   0.00000  -0.00126
                          26        27        28        29        30
                           V         V         V         V         V
     Eigenvalues --     0.23739   0.24233   0.30551   0.41056   0.48132
   1 1   N  1S         -0.00021  -0.00493  -0.01480   0.02522  -0.00213
   2        2S         -0.00032  -0.00710  -0.02248   0.04522  -0.00386
   3        2PX         0.00074   0.00155   0.00046  -0.00026  -0.10050
   4        2PY         0.00299   0.02171  -0.00798  -0.02492   0.00812
   5        2PZ         0.00000   0.00000   0.00000   0.00000   0.00000
   6        3S          0.00010  -0.01112  -0.03105  -0.23528   0.01671
   7        3PX        -0.01862   0.00408   0.00091  -0.00195  -0.19926
   8        3PY        -0.00062  -0.00561   0.04271  -0.03984   0.02259
   9        3PZ         0.00000   0.00000   0.00000   0.00000   0.00000
  10        4S         -0.07739  -0.41078   1.19569  -0.92874   0.31622
  11        4PX         0.04540  -0.00327  -0.00437  -0.00583   0.00139
  12        4PY        -0.08132  -1.16785  -1.09209  -3.56707   0.49852
  13        4PZ         0.00000   0.00000   0.00000   0.00000   0.00000
  14        5S          0.79739  -7.77564 -69.81131  21.87478  -0.45226
  15        5PX        -2.65232   0.20532  -0.14917   0.08032  -1.10484
  16        5PY        -0.54333 -11.20773 -25.78289   5.84512   0.37854
  17        5PZ         0.00000   0.00000   0.00000   0.00000   0.00000
  18        6D 0        0.00096   0.00813  -0.00159  -0.00556   0.00057
  19        6D+1        0.00000   0.00000   0.00000   0.00000   0.00000
  20        6D-1        0.00000   0.00000   0.00000   0.00000   0.00000
  21        6D+2        0.00163   0.01203  -0.00318  -0.00629   0.00089
  22        6D-2       -0.00273   0.00025   0.00007   0.00032  -0.01431
  23        7D 0        0.00286   0.02938  -0.06727  -0.04871  -0.00218
  24        7D+1        0.00000   0.00000   0.00000   0.00000   0.00000
  25        7D-1        0.00000   0.00000   0.00000   0.00000   0.00000
  26        7D+2        0.00715   0.02672  -0.15126  -0.13459   0.00518
  27        7D-2       -0.01093   0.00132   0.00180  -0.00030  -0.07219
  28 2   N  1S          0.00033   0.00275   0.01094  -0.02369   0.00287
  29        2S          0.00079   0.00711   0.01982  -0.03752   0.00462
  30        2PX         0.04870  -0.00596   0.00002  -0.00091   0.03452
  31        2PY         0.00681   0.05176  -0.05824  -0.03205   0.00327
  32        2PZ         0.00000   0.00000   0.00000   0.00000   0.00000
  33        3S         -0.00894  -0.09136  -0.09961   0.02613  -0.00134
  34        3PX         0.06982  -0.00877   0.00058  -0.00101   0.03822
  35        3PY         0.00288   0.03146   0.03751  -0.07597   0.01459
  36        3PZ         0.00000   0.00000   0.00000   0.00000   0.00000
  37        4S          0.15190   1.63865   0.03658   3.65073  -0.59857
  38        4PX         0.15550  -0.02402  -0.00240  -0.01319   0.18639
  39        4PY        -0.03406  -0.51116  -0.66760  -1.63733   0.31240
  40        4PZ         0.00000   0.00000   0.00000   0.00000   0.00000
  41        5S          0.03569  16.57062  74.92413 -21.14448  -0.08351
  42        5PX         0.86995  -0.08104  -0.08318   0.00902   0.65306
  43        5PY         0.19679  -1.81079 -17.47133   5.48068  -0.12881
  44        5PZ         0.00000   0.00000   0.00000   0.00000   0.00000
  45        6D 0       -0.00015  -0.00095   0.00091   0.00773  -0.00125
  46        6D+1        0.00000   0.00000   0.00000   0.00000   0.00000
  47        6D-1        0.00000   0.00000   0.00000   0.00000   0.00000
  48        6D+2       -0.00021  -0.00165   0.00110   0.01260  -0.00209
  49        6D-2        0.00057  -0.00014  -0.00005  -0.00023   0.00809
  50        7D 0       -0.00398  -0.03098  -0.00022  -0.03186   0.00521
  51        7D+1        0.00000   0.00000   0.00000   0.00000   0.00000
  52        7D-1        0.00000   0.00000   0.00000   0.00000   0.00000
  53        7D+2       -0.00634  -0.06424  -0.00997  -0.03925   0.01502
  54        7D-2        0.00575   0.00009  -0.00010   0.00047   0.08045
  55 3   C  1S          0.00524   0.03483   0.01765  -0.00785  -0.00512
  56        2S          0.00804   0.05404   0.02766  -0.01719  -0.00821
  57        2PX         0.18066  -0.02336   0.00111   0.00186   0.04922
  58        2PY        -0.00636  -0.05288   0.07228   0.12807  -0.02285
  59        2PZ         0.00000   0.00000   0.00000   0.00000   0.00000
  60        3S         -0.00467  -0.02233   0.05825   0.18111   0.01196
  61        3PX         0.20253  -0.02104   0.00018  -0.01140   0.23039
  62        3PY        -0.01001  -0.06771   0.01351   0.11631  -0.03941
  63        3PZ         0.00000   0.00000   0.00000   0.00000   0.00000
  64        4S         -0.45832  -3.19339  -2.85045  -2.56841   0.25261
  65        4PX         1.53310  -0.20623  -0.00833  -0.09731   1.34772
  66        4PY        -0.07797  -1.46364  -0.87029  -3.25559   0.37528
  67        4PZ         0.00000   0.00000   0.00000   0.00000   0.00000
  68        5S         -0.61628  -4.78113  -2.49467  -1.28382   0.02016
  69        5PX         2.59022  -0.30090   0.03936  -0.04529  -0.56773
  70        5PY        -0.17350  -1.37483   0.27322   0.64252   0.12167
  71        5PZ         0.00000   0.00000   0.00000   0.00000   0.00000
  72        6D 0        0.00073   0.00907   0.00419  -0.00281   0.00387
  73        6D+1        0.00000   0.00000   0.00000   0.00000   0.00000
  74        6D-1        0.00000   0.00000   0.00000   0.00000   0.00000
  75        6D+2        0.00055  -0.00458  -0.00502  -0.03653   0.00192
  76        6D-2        0.01276  -0.00185  -0.00011   0.00092   0.03144
  77        7D 0        0.01015   0.12544   0.11840   0.20097   0.00020
  78        7D+1        0.00000   0.00000   0.00000   0.00000   0.00000
  79        7D-1        0.00000   0.00000   0.00000   0.00000   0.00000
  80        7D+2        0.00503   0.11303   0.14723   0.35956  -0.05496
  81        7D-2       -0.00494  -0.00365   0.00016   0.00422  -0.02053
  82 4   H  1S         -0.03501  -0.01486  -0.00453  -0.05751  -0.10734
  83        2S         -0.06024   0.09051   0.04789  -0.81629  -1.47848
  84        3S         -2.65053  -0.85027  -0.87740   1.17665   1.71058
  85        4PX        -0.01721  -0.00354   0.00257   0.00184   0.05677
  86        4PY         0.01780   0.00798  -0.00992  -0.05184   0.02218
  87        4PZ         0.00000   0.00000   0.00000   0.00000   0.00000
  88 5   H  1S          0.02812  -0.02339  -0.00710  -0.05842   0.07908
  89        2S          0.07599   0.08968   0.03286  -0.84732   1.27969
  90        3S          2.83960  -1.58717  -0.82637   1.02682  -0.94901
  91        4PX        -0.01891   0.01026  -0.00444  -0.00976   0.06862
  92        4PY        -0.01534   0.01225  -0.01003  -0.05239  -0.01815
  93        4PZ         0.00000   0.00000   0.00000   0.00000   0.00000
                          31        32        33        34        35
                           V         V         V         V         V
     Eigenvalues --     0.53045   0.56359   0.58500   0.61585   0.67164
   1 1   N  1S          0.01175   0.00000   0.00000   0.01438   0.00023
   2        2S          0.02257   0.00000   0.00000   0.02821   0.00050
   3        2PX        -0.01543   0.00000   0.00000   0.00253   0.01681
   4        2PY        -0.09487   0.00000   0.00000  -0.15034  -0.00003
   5        2PZ         0.00000   0.02320  -0.00075   0.00000   0.00000
   6        3S         -0.10094   0.00000   0.00000  -0.06050  -0.00218
   7        3PX        -0.02907   0.00000   0.00000   0.00361   0.11611
   8        3PY        -0.25377   0.00000   0.00000  -0.50520   0.00068
   9        3PZ         0.00000   0.06449  -0.00198   0.00000   0.00000
  10        4S         -3.44762   0.00000   0.00000  -6.81907  -0.05974
  11        4PX        -0.03616   0.00000   0.00000  -0.00809  -0.38932
  12        4PY        -4.62338   0.00000   0.00000  -1.92835   0.07114
  13        4PZ         0.00000  -0.24693   0.00750   0.00000   0.00000
  14        5S         -7.11458   0.00000   0.00000 -15.21647   0.61414
  15        5PX        -0.34404   0.00000   0.00000   0.07603  -1.81244
  16        5PY        -7.72878   0.00000   0.00000  -5.65145   0.50997
  17        5PZ         0.00000  -0.39831   0.01847   0.00000   0.00000
  18        6D 0       -0.00383   0.00000   0.00000   0.00042   0.00025
  19        6D+1        0.00000   0.00019   0.00582   0.00000   0.00000
  20        6D-1        0.00000   0.00149  -0.00009   0.00000   0.00000
  21        6D+2       -0.00797   0.00000   0.00000  -0.00446   0.00006
  22        6D-2       -0.00249   0.00000   0.00000   0.00055  -0.00068
  23        7D 0        0.02607   0.00000   0.00000   0.21718   0.00297
  24        7D+1        0.00000   0.00719   0.22166   0.00000   0.00000
  25        7D-1        0.00000   0.06780  -0.00370   0.00000   0.00000
  26        7D+2        0.02686   0.00000   0.00000   0.33260   0.00932
  27        7D-2       -0.01015   0.00000   0.00000  -0.00040   0.08491
  28 2   N  1S         -0.02369   0.00000   0.00000  -0.02554   0.00009
  29        2S         -0.03828   0.00000   0.00000  -0.04332   0.00012
  30        2PX         0.00634   0.00000   0.00000  -0.00164   0.05896
  31        2PY        -0.02319   0.00000   0.00000   0.01250   0.00105
  32        2PZ         0.00000  -0.02712   0.00096   0.00000   0.00000
  33        3S         -0.00139   0.00000   0.00000   0.02375   0.00084
  34        3PX         0.00657   0.00000   0.00000  -0.00289   0.15740
  35        3PY        -0.13052   0.00000   0.00000  -0.08354   0.00158
  36        3PZ         0.00000  -0.09350   0.00341   0.00000   0.00000
  37        4S          5.82163   0.00000   0.00000   5.44231  -0.02875
  38        4PX         0.01990   0.00000   0.00000  -0.02748  -0.17889
  39        4PY        -3.25316   0.00000   0.00000  -4.10910  -0.00115
  40        4PZ         0.00000   0.12959  -0.00440   0.00000   0.00000
  41        5S         13.00714   0.00000   0.00000  15.97859  -0.93801
  42        5PX         0.13900   0.00000   0.00000  -0.05922   0.92885
  43        5PY        -1.59969   0.00000   0.00000  -2.71468   0.17046
  44        5PZ         0.00000   0.39056  -0.01578   0.00000   0.00000
  45        6D 0        0.01256   0.00000   0.00000   0.02031   0.00010
  46        6D+1        0.00000   0.00009   0.00248   0.00000   0.00000
  47        6D-1        0.00000   0.00228  -0.00008   0.00000   0.00000
  48        6D+2        0.02264   0.00000   0.00000   0.03532   0.00016
  49        6D-2        0.00118   0.00000   0.00000  -0.00065  -0.00252
  50        7D 0       -0.06120   0.00000   0.00000  -0.10935  -0.00287
  51        7D+1        0.00000   0.00195   0.07113   0.00000   0.00000
  52        7D-1        0.00000  -0.01596  -0.00002   0.00000   0.00000
  53        7D+2       -0.14503   0.00000   0.00000  -0.19777   0.00104
  54        7D-2        0.01575   0.00000   0.00000  -0.00220   0.02203
  55 3   C  1S          0.03868   0.00000   0.00000  -0.01031  -0.00274
  56        2S          0.06650   0.00000   0.00000  -0.02059  -0.00446
  57        2PX        -0.00302   0.00000   0.00000   0.00533  -0.25666
  58        2PY         0.12092   0.00000   0.00000  -0.16915  -0.00741
  59        2PZ         0.00000  -0.23646   0.00935   0.00000   0.00000
  60        3S         -0.11415   0.00000   0.00000   0.07242   0.01389
  61        3PX         0.01362   0.00000   0.00000   0.02691  -0.79090
  62        3PY         0.29950   0.00000   0.00000  -0.33509  -0.00877
  63        3PZ         0.00000  -0.89836   0.03288   0.00000   0.00000
  64        4S         -3.65719   0.00000   0.00000  -0.56263  -0.07452
  65        4PX         0.37574   0.00000   0.00000  -0.12423   3.91174
  66        4PY        -2.83920   0.00000   0.00000   2.15706   0.14622
  67        4PZ         0.00000   1.69321  -0.06335   0.00000   0.00000
  68        5S         -1.32044   0.00000   0.00000  -0.69158   0.04808
  69        5PX         0.03679   0.00000   0.00000  -0.04264   1.23834
  70        5PY        -0.95311   0.00000   0.00000  -0.00944   0.03678
  71        5PZ         0.00000  -0.62618   0.02063   0.00000   0.00000
  72        6D 0       -0.02872   0.00000   0.00000   0.00334   0.00230
  73        6D+1        0.00000   0.00029   0.00056   0.00000   0.00000
  74        6D-1        0.00000  -0.01011   0.00036   0.00000   0.00000
  75        6D+2       -0.01390   0.00000   0.00000  -0.00238  -0.00033
  76        6D-2        0.00475   0.00000   0.00000  -0.00157  -0.00466
  77        7D 0        0.00973   0.00000   0.00000   0.07287   0.02744
  78        7D+1        0.00000   0.02910   0.88442   0.00000   0.00000
  79        7D-1        0.00000  -0.18788   0.00351   0.00000   0.00000
  80        7D+2        0.32289   0.00000   0.00000  -0.54608  -0.05310
  81        7D-2       -0.02075   0.00000   0.00000   0.01205  -0.43499
  82 4   H  1S          0.08746   0.00000   0.00000  -0.03633   0.05187
  83        2S          0.75435   0.00000   0.00000   0.18118  -0.57923
  84        3S         -2.60189   0.00000   0.00000   0.78219  -2.49101
  85        4PX         0.03533   0.00000   0.00000  -0.04689   0.10382
  86        4PY        -0.00170   0.00000   0.00000   0.05406  -0.03239
  87        4PZ         0.00000   0.00643   0.04471   0.00000   0.00000
  88 5   H  1S          0.10547   0.00000   0.00000  -0.03445  -0.06329
  89        2S          1.20132   0.00000   0.00000   0.11565   0.55833
  90        3S         -2.65397   0.00000   0.00000   0.67995   2.97923
  91        4PX        -0.00563   0.00000   0.00000   0.04019   0.11229
  92        4PY        -0.00425   0.00000   0.00000   0.04978   0.03590
  93        4PZ         0.00000  -0.00159  -0.03570   0.00000   0.00000
                          36        37        38        39        40
                           V         V         V         V         V
     Eigenvalues --     0.72185   0.74900   0.75391   0.76300   0.79984
   1 1   N  1S          0.00000  -0.00036   0.00624   0.00000   0.00552
   2        2S          0.00000  -0.00068   0.01204   0.00000   0.00370
   3        2PX         0.00000  -0.07117  -0.00234   0.00000   0.00052
   4        2PY         0.00000   0.00242  -0.01653   0.00000  -0.16246
   5        2PZ         0.15225   0.00000   0.00000   0.04781   0.00000
   6        3S          0.00000   0.00565  -0.09465   0.00000   0.20385
   7        3PX         0.00000  -0.32314  -0.01865   0.00000   0.00254
   8        3PY         0.00000   0.00604  -0.04846   0.00000  -0.20926
   9        3PZ         0.46813   0.00000   0.00000   0.00940   0.00000
  10        4S          0.00000  -0.01224   0.04174   0.00000   0.74304
  11        4PX         0.00000   0.49122   0.02978   0.00000  -0.00273
  12        4PY         0.00000   0.05088  -0.19106   0.00000   1.50336
  13        4PZ        -0.74991   0.00000   0.00000  -0.17319   0.00000
  14        5S          0.00000   0.99251  -8.93055   0.00000  -3.55130
  15        5PX         0.00000  -1.02386  -0.08043   0.00000  -0.02759
  16        5PY         0.00000   0.51359  -3.45954   0.00000  -5.24540
  17        5PZ         1.32797   0.00000   0.00000   0.75235   0.00000
  18        6D 0        0.00000   0.00097  -0.01092   0.00000  -0.01458
  19        6D+1        0.00012   0.00000   0.00000   0.00007   0.00000
  20        6D-1        0.02924   0.00000   0.00000   0.02175   0.00000
  21        6D+2        0.00000  -0.00058   0.00858   0.00000  -0.02904
  22        6D-2        0.00000  -0.00176   0.00096   0.00000   0.00071
  23        7D 0        0.00000   0.04123  -0.49188   0.00000  -0.12445
  24        7D+1       -0.00070   0.00000   0.00000  -0.00307   0.00000
  25        7D-1        0.08945   0.00000   0.00000  -0.24126   0.00000
  26        7D+2        0.00000  -0.01877   0.24689   0.00000  -0.21451
  27        7D-2        0.00000  -0.22014  -0.02445   0.00000   0.00005
  28 2   N  1S          0.00000   0.00039  -0.00408   0.00000  -0.00816
  29        2S          0.00000   0.00058  -0.00633   0.00000  -0.01362
  30        2PX         0.00000  -0.20711  -0.01925   0.00000  -0.00339
  31        2PY         0.00000   0.00288  -0.00859   0.00000  -0.23174
  32        2PZ         0.07956   0.00000   0.00000  -0.22335   0.00000
  33        3S          0.00000   0.00115  -0.00637   0.00000   0.04210
  34        3PX         0.00000  -0.68931  -0.05978   0.00000  -0.00844
  35        3PY         0.00000   0.00424   0.02365   0.00000  -0.49706
  36        3PZ         0.36299   0.00000   0.00000  -0.65203   0.00000
  37        4S          0.00000  -0.04820   0.28272   0.00000  -1.82833
  38        4PX         0.00000   1.49767   0.12974   0.00000   0.02455
  39        4PY         0.00000   0.02381  -0.33812   0.00000   1.81266
  40        4PZ        -0.74611   0.00000   0.00000   1.50211   0.00000
  41        5S          0.00000  -1.19333   9.46306   0.00000   8.49251
  42        5PX         0.00000  -0.45016  -0.05544   0.00000  -0.01547
  43        5PY         0.00000   0.24612  -2.02272   0.00000  -1.76644
  44        5PZ        -0.12165   0.00000   0.00000  -1.10940   0.00000
  45        6D 0        0.00000   0.00035  -0.00414   0.00000  -0.00286
  46        6D+1       -0.00010   0.00000   0.00000   0.00005   0.00000
  47        6D-1       -0.01790   0.00000   0.00000   0.01503   0.00000
  48        6D+2        0.00000  -0.00049   0.00921   0.00000  -0.00459
  49        6D-2        0.00000   0.02146   0.00151   0.00000   0.00011
  50        7D 0        0.00000   0.02399  -0.32144   0.00000   0.13336
  51        7D+1       -0.00172   0.00000   0.00000  -0.00237   0.00000
  52        7D-1       -0.22358   0.00000   0.00000  -0.20739   0.00000
  53        7D+2        0.00000  -0.01536   0.20073   0.00000   0.20946
  54        7D-2        0.00000   0.00369  -0.00963   0.00000  -0.00648
  55 3   C  1S          0.00000   0.00032  -0.00569   0.00000  -0.04537
  56        2S          0.00000   0.00111  -0.01311   0.00000  -0.09561
  57        2PX         0.00000  -0.08045  -0.00689   0.00000  -0.00131
  58        2PY         0.00000   0.00103  -0.02540   0.00000  -0.07388
  59        2PZ         0.05425   0.00000   0.00000   0.06316   0.00000
  60        3S          0.00000  -0.00592  -0.04031   0.00000   0.97763
  61        3PX         0.00000  -0.20075  -0.03757   0.00000   0.03195
  62        3PY         0.00000   0.01795  -0.23213   0.00000   0.00087
  63        3PZ         0.19999   0.00000   0.00000   0.19233   0.00000
  64        4S          0.00000  -0.04376   0.89946   0.00000  -2.91198
  65        4PX         0.00000   0.95937   0.04256   0.00000   0.05987
  66        4PY         0.00000   0.09876  -0.56930   0.00000   0.56762
  67        4PZ        -0.29651   0.00000   0.00000  -0.54291   0.00000
  68        5S          0.00000   0.07207  -0.16266   0.00000  -2.84718
  69        5PX         0.00000   0.98663   0.06375   0.00000   0.00307
  70        5PY         0.00000   0.00273   0.09189   0.00000  -0.97727
  71        5PZ        -0.49249   0.00000   0.00000   0.02840   0.00000
  72        6D 0        0.00000   0.00065   0.00237   0.00000  -0.00752
  73        6D+1       -0.00008   0.00000   0.00000  -0.00007   0.00000
  74        6D-1       -0.01286   0.00000   0.00000  -0.00345   0.00000
  75        6D+2        0.00000   0.00004  -0.00323   0.00000  -0.01996
  76        6D-2        0.00000  -0.00011   0.00086   0.00000  -0.00186
  77        7D 0        0.00000   0.06008  -0.61515   0.00000  -0.17261
  78        7D+1       -0.00414   0.00000   0.00000  -0.00440   0.00000
  79        7D-1       -0.52964   0.00000   0.00000  -0.65578   0.00000
  80        7D+2        0.00000  -0.05220   0.45012   0.00000  -0.58223
  81        7D-2        0.00000  -0.38483  -0.05952   0.00000  -0.02955
  82 4   H  1S          0.00000   0.03343  -0.01339   0.00000  -0.01773
  83        2S          0.00000  -0.04711  -0.93315   0.00000   0.40280
  84        3S          0.00000  -1.07213  -0.31852   0.00000   0.04453
  85        4PX         0.00000   0.03878   0.04515   0.00000  -0.08247
  86        4PY         0.00000  -0.02472  -0.03864   0.00000   0.04072
  87        4PZ         0.03651   0.00000   0.00000   0.02419   0.00000
  88 5   H  1S          0.00000  -0.03055  -0.02120   0.00000  -0.01909
  89        2S          0.00000   0.19770  -0.93922   0.00000   0.51784
  90        3S          0.00000   1.23571  -0.20878   0.00000   0.08986
  91        4PX         0.00000   0.04688  -0.03932   0.00000   0.09505
  92        4PY         0.00000   0.02453  -0.03184   0.00000   0.04805
  93        4PZ         0.03319   0.00000   0.00000   0.02022   0.00000
                          41        42        43        44        45
                           V         V         V         V         V
     Eigenvalues --     0.82571   0.87153   0.89116   0.90722   0.93963
   1 1   N  1S          0.00000   0.00061   0.00000  -0.04885   0.02739
   2        2S          0.00000   0.00110   0.00000  -0.09499   0.06132
   3        2PX         0.00000  -0.21782   0.00000   0.00057   0.00434
   4        2PY         0.00000  -0.00096   0.00000   0.10485   0.10055
   5        2PZ         0.00079   0.00000  -0.19583   0.00000   0.00000
   6        3S          0.00000  -0.00515   0.00000   0.69354  -0.73390
   7        3PX         0.00000  -0.76484   0.00000  -0.00248   0.00726
   8        3PY         0.00000  -0.00094   0.00000   0.23341   0.17552
   9        3PZ         0.00196   0.00000  -0.73000   0.00000   0.00000
  10        4S          0.00000   0.05511   0.00000  -6.30229   2.82721
  11        4PX         0.00000   2.54505   0.00000  -0.00616  -0.01296
  12        4PY         0.00000   0.07695   0.00000  -5.43433  -1.13356
  13        4PZ        -0.00594   0.00000   2.42377   0.00000   0.00000
  14        5S          0.00000   0.11096   0.00000 -14.40239 -19.53906
  15        5PX         0.00000  -1.86052   0.00000  -0.08682  -0.10434
  16        5PY         0.00000   0.10179   0.00000  -8.95038  -9.73583
  17        5PZ         0.00448   0.00000  -1.77111   0.00000   0.00000
  18        6D 0        0.00000  -0.00023   0.00000  -0.00616   0.02339
  19        6D+1        0.01269   0.00000   0.00006   0.00000   0.00000
  20        6D-1        0.00009   0.00000   0.00808   0.00000   0.00000
  21        6D+2        0.00000  -0.00004   0.00000  -0.01550   0.03274
  22        6D-2        0.00000  -0.00162   0.00000   0.00194   0.00343
  23        7D 0        0.00000  -0.00487   0.00000   0.13192   0.00103
  24        7D+1        0.56098   0.00000   0.00190   0.00000   0.00000
  25        7D-1       -0.00313   0.00000   0.25607   0.00000   0.00000
  26        7D+2        0.00000   0.00409   0.00000   0.11117  -0.16020
  27        7D-2        0.00000   0.25266   0.00000  -0.00013  -0.00268
  28 2   N  1S          0.00000   0.00025   0.00000  -0.05441   0.05266
  29        2S          0.00000   0.00049   0.00000  -0.10976   0.10853
  30        2PX         0.00000   0.09009   0.00000  -0.00163  -0.00492
  31        2PY         0.00000  -0.00294   0.00000   0.12229   0.10049
  32        2PZ        -0.00074   0.00000   0.04838   0.00000   0.00000
  33        3S          0.00000  -0.00345   0.00000   0.79689  -0.85773
  34        3PX         0.00000   0.27755   0.00000  -0.00250  -0.00692
  35        3PY         0.00000  -0.00497   0.00000   0.10507   0.34251
  36        3PZ        -0.00207   0.00000   0.16183   0.00000   0.00000
  37        4S          0.00000  -0.08522   0.00000   5.43544   1.13945
  38        4PX         0.00000  -1.60276   0.00000  -0.02308   0.01463
  39        4PY         0.00000   0.05791   0.00000  -3.65900  -0.54914
  40        4PZ         0.00587   0.00000  -1.35859   0.00000   0.00000
  41        5S          0.00000  -0.19646   0.00000  21.63587  22.12579
  42        5PX         0.00000   1.29145   0.00000   0.00300   0.00832
  43        5PY         0.00000   0.02907   0.00000  -4.35727  -4.30959
  44        5PZ        -0.00370   0.00000   1.14649   0.00000   0.00000
  45        6D 0        0.00000  -0.00006   0.00000  -0.00474   0.01138
  46        6D+1        0.01057   0.00000  -0.00007   0.00000   0.00000
  47        6D-1       -0.00002   0.00000  -0.01836   0.00000   0.00000
  48        6D+2        0.00000  -0.00005   0.00000  -0.01165   0.01069
  49        6D-2        0.00000  -0.01833   0.00000  -0.00045  -0.00096
  50        7D 0        0.00000  -0.00369   0.00000  -0.10175   0.32222
  51        7D+1        0.59783   0.00000   0.00094   0.00000   0.00000
  52        7D-1       -0.00413   0.00000  -0.06027   0.00000   0.00000
  53        7D+2        0.00000   0.01036   0.00000  -0.56201  -0.12292
  54        7D-2        0.00000   0.03958   0.00000  -0.00925  -0.02974
  55 3   C  1S          0.00000   0.00062   0.00000  -0.02444  -0.07482
  56        2S          0.00000   0.00134   0.00000  -0.05087  -0.15307
  57        2PX         0.00000  -0.01124   0.00000   0.00153   0.00545
  58        2PY         0.00000   0.00014   0.00000  -0.06178   0.07166
  59        2PZ        -0.00025   0.00000   0.01331   0.00000   0.00000
  60        3S          0.00000  -0.01447   0.00000   0.44359   1.35388
  61        3PX         0.00000   0.04255   0.00000   0.02616   0.04834
  62        3PY         0.00000   0.00280   0.00000  -0.32442  -0.07943
  63        3PZ        -0.00266   0.00000   0.02899   0.00000   0.00000
  64        4S          0.00000   0.10157   0.00000  -4.17893  -4.16456
  65        4PX         0.00000  -0.63207   0.00000   0.08402   0.18201
  66        4PY         0.00000   0.04313   0.00000  -1.11081  -2.03276
  67        4PZ         0.00367   0.00000  -0.44591   0.00000   0.00000
  68        5S          0.00000   0.04922   0.00000  -3.64049  -1.19708
  69        5PX         0.00000   0.46562   0.00000  -0.00372  -0.00438
  70        5PY         0.00000   0.00672   0.00000  -1.17308   0.29654
  71        5PZ        -0.00201   0.00000   0.52078   0.00000   0.00000
  72        6D 0        0.00000   0.00025   0.00000  -0.00440  -0.00134
  73        6D+1       -0.00494   0.00000  -0.00007   0.00000   0.00000
  74        6D-1        0.00009   0.00000  -0.00237   0.00000   0.00000
  75        6D+2        0.00000  -0.00032   0.00000  -0.00562   0.00746
  76        6D-2        0.00000  -0.00089   0.00000  -0.00081  -0.00123
  77        7D 0        0.00000   0.00266   0.00000  -0.31978  -0.33719
  78        7D+1       -0.29605   0.00000  -0.00408   0.00000   0.00000
  79        7D-1       -0.00127   0.00000  -0.55930   0.00000   0.00000
  80        7D+2        0.00000  -0.00841   0.00000   0.04526   0.63300
  81        7D-2        0.00000  -0.31948   0.00000  -0.08553  -0.16946
  82 4   H  1S          0.00000   0.01244   0.00000  -0.01696  -0.00879
  83        2S          0.00000   0.04587   0.00000  -0.20378  -0.67420
  84        3S          0.00000   0.17969   0.00000  -0.13025  -0.22846
  85        4PX         0.00000   0.00688   0.00000  -0.01959  -0.01914
  86        4PY         0.00000  -0.02029   0.00000   0.03339  -0.00199
  87        4PZ        -0.06913   0.00000   0.00641   0.00000   0.00000
  88 5   H  1S          0.00000  -0.01015   0.00000  -0.01766  -0.01015
  89        2S          0.00000  -0.03930   0.00000  -0.00355  -0.27455
  90        3S          0.00000  -0.20327   0.00000  -0.14740  -0.26566
  91        4PX         0.00000   0.00832   0.00000   0.03122   0.04261
  92        4PY         0.00000   0.01202   0.00000   0.04255   0.01643
  93        4PZ         0.06552   0.00000   0.00432   0.00000   0.00000
                          46        47        48        49        50
                           V         V         V         V         V
     Eigenvalues --     0.95193   0.98237   1.15458   1.22510   1.23960
   1 1   N  1S         -0.02532  -0.00348  -0.08491   0.03154   0.00000
   2        2S         -0.04402  -0.00700  -0.16807   0.06568   0.00000
   3        2PX        -0.00225   0.05994  -0.00217  -0.00283   0.00000
   4        2PY         0.13339  -0.00589  -0.05743  -0.19879   0.00000
   5        2PZ         0.00000   0.00000   0.00000   0.00000  -0.00009
   6        3S          0.13319   0.06268   1.26250  -1.00305   0.00000
   7        3PX        -0.00346   0.15077  -0.01427  -0.01461   0.00000
   8        3PY         0.11556  -0.02527  -0.73351  -0.02364   0.00000
   9        3PZ         0.00000   0.00000   0.00000   0.00000   0.00082
  10        4S         -1.88584  -0.15171  -3.29028  14.41260   0.00000
  11        4PX        -0.00866  -0.43174   0.00489  -0.03888   0.00000
  12        4PY        -2.65529   0.06401  -1.07727   4.27643   0.00000
  13        4PZ         0.00000   0.00000   0.00000   0.00000   0.01127
  14        5S        -11.83805   2.18512  22.17685 -16.88855   0.00000
  15        5PX        -0.02588  -0.48931   0.04397  -0.04034   0.00000
  16        5PY        -9.11502   0.84350   5.84888  -6.16226   0.00000
  17        5PZ         0.00000   0.00000   0.00000   0.00000   0.00352
  18        6D 0        0.00613  -0.00083   0.00512   0.01466   0.00000
  19        6D+1        0.00000   0.00000   0.00000   0.00000  -0.00741
  20        6D-1        0.00000   0.00000   0.00000   0.00000  -0.00036
  21        6D+2        0.01713  -0.00091   0.00994   0.02689   0.00000
  22        6D-2       -0.00264   0.04166  -0.00006   0.00241   0.00000
  23        7D 0       -0.07349   0.00714  -0.10140  -0.72985   0.00000
  24        7D+1        0.00000   0.00000   0.00000   0.00000  -0.84810
  25        7D-1        0.00000   0.00000   0.00000   0.00000  -0.00306
  26        7D+2        0.07922   0.01855   0.06874  -1.22872   0.00000
  27        7D-2        0.00017  -0.05772   0.01899   0.05597   0.00000
  28 2   N  1S          0.02276  -0.00001   0.03475  -0.07742   0.00000
  29        2S          0.04431  -0.00055   0.06672  -0.14300   0.00000
  30        2PX         0.00425  -0.05849  -0.00203  -0.00885   0.00000
  31        2PY         0.15685  -0.00155   0.03080  -0.07719   0.00000
  32        2PZ         0.00000   0.00000   0.00000   0.00000   0.00121
  33        3S         -0.33146   0.01262  -0.60224   0.93157   0.00000
  34        3PX         0.00724  -0.09545  -0.01091  -0.02568   0.00000
  35        3PY         0.26422  -0.02367  -0.25817   0.76678   0.00000
  36        3PZ         0.00000   0.00000   0.00000   0.00000   0.00442
  37        4S          3.17001  -0.00202   3.27695 -11.90767   0.00000
  38        4PX        -0.01954   0.32525  -0.00496   0.07579   0.00000
  39        4PY        -1.96181   0.03255  -1.15224   4.94106   0.00000
  40        4PZ         0.00000   0.00000   0.00000   0.00000  -0.00756
  41        5S         18.29789  -2.30359 -20.76147  18.76323   0.00000
  42        5PX        -0.02976   0.27275   0.01749  -0.02492   0.00000
  43        5PY        -3.26002   0.49959   5.07460  -4.75323   0.00000
  44        5PZ         0.00000   0.00000   0.00000   0.00000  -0.00160
  45        6D 0       -0.00649  -0.00115  -0.00457   0.01616   0.00000
  46        6D+1        0.00000   0.00000   0.00000   0.00000   0.00423
  47        6D-1        0.00000   0.00000   0.00000   0.00000   0.00027
  48        6D+2        0.00005  -0.00085  -0.01104   0.02936   0.00000
  49        6D-2        0.00058  -0.00874  -0.00036  -0.00217   0.00000
  50        7D 0       -0.55758  -0.04971  -0.00142   0.27549   0.00000
  51        7D+1        0.00000   0.00000   0.00000   0.00000   0.87325
  52        7D-1        0.00000   0.00000   0.00000   0.00000   0.00251
  53        7D+2       -0.04471   0.01743  -0.36565   0.44082   0.00000
  54        7D-2        0.01938  -0.35609  -0.00649  -0.06066   0.00000
  55 3   C  1S         -0.06250   0.00665  -0.01318  -0.01822   0.00000
  56        2S         -0.12902   0.01546  -0.03689  -0.03963   0.00000
  57        2PX        -0.00119   0.08202  -0.00160   0.00487   0.00000
  58        2PY         0.08503   0.00253  -0.07359  -0.04288   0.00000
  59        2PZ         0.00000   0.00000   0.00000   0.00000  -0.00095
  60        3S          1.44364  -0.12684   0.41069   0.90818   0.00000
  61        3PX         0.02895   0.70510  -0.03135  -0.02574   0.00000
  62        3PY         0.32704   0.08606   0.17754  -0.56097   0.00000
  63        3PZ         0.00000   0.00000   0.00000   0.00000   0.00635
  64        4S         -6.81225  -0.06780  -0.58139  -3.31796   0.00000
  65        4PX        -0.07128   2.75417  -0.12064  -0.01609   0.00000
  66        4PY        -0.97257   0.07312  -1.56457  -2.33326   0.00000
  67        4PZ         0.00000   0.00000   0.00000   0.00000  -0.01286
  68        5S         -3.01280   0.06670  -1.07933  -0.94284   0.00000
  69        5PX         0.01214  -0.20019  -0.00127   0.01358   0.00000
  70        5PY        -0.93885  -0.03448  -0.40212   0.05628   0.00000
  71        5PZ         0.00000   0.00000   0.00000   0.00000   0.00104
  72        6D 0       -0.00498   0.00217  -0.01115  -0.00239   0.00000
  73        6D+1        0.00000   0.00000   0.00000   0.00000   0.01576
  74        6D-1        0.00000   0.00000   0.00000   0.00000  -0.00013
  75        6D+2       -0.00465  -0.00337  -0.01674   0.01918   0.00000
  76        6D-2       -0.00208  -0.00847   0.00010   0.00069   0.00000
  77        7D 0        0.86425   0.12472   0.34347   0.73089   0.00000
  78        7D+1        0.00000   0.00000   0.00000   0.00000   0.05837
  79        7D-1        0.00000   0.00000   0.00000   0.00000  -0.00586
  80        7D+2       -0.43167  -0.10941   0.88903   1.38464   0.00000
[...]
  71        5PZ         0.00000   0.00000   0.01357   0.00000   0.00000
  72        6D 0        0.00000   0.00000   0.00000   0.00000   0.00000
  73        6D+1        0.00000   0.00000   0.00000   0.00000   0.00000
  74        6D-1        0.00000   0.00000   0.00000   0.00000   0.00000
  75        6D+2        0.00000   0.00000   0.00000   0.00000   0.00000
  76        6D-2        0.00000   0.00000   0.00000   0.00000   0.00000
  77        7D 0        0.00000   0.00000   0.00000   0.00000   0.00000
  78        7D+1        0.00000   0.00000   0.00000   0.00000   0.00000
  79        7D-1        0.00000   0.00000   0.00000   0.00000   0.00000
  80        7D+2        0.00000   0.00000   0.00000   0.00000   0.00000
  81        7D-2        0.00000   0.00000   0.00000   0.00000   0.00000
  82 4   H  1S          0.02628   0.00700   0.00000   0.02123   0.01675
  83        2S          0.05570   0.01250   0.00000   0.06341   0.04535
  84        3S          0.00660   0.00155   0.00000   0.01051   0.00917
  85        4PX         0.00209   0.00169   0.00000   0.00250  -0.00031
  86        4PY         0.00249  -0.00003   0.00000   0.00062   0.00070
  87        4PZ         0.00000   0.00000   0.00382   0.00000   0.00000
  88 5   H  1S          0.02968   0.00709   0.00000   0.02112   0.01706
  89        2S          0.05823   0.01151   0.00000   0.05953   0.04482
  90        3S          0.00616   0.00131   0.00000   0.00761   0.00837
  91        4PX         0.00216   0.00167   0.00000   0.00252  -0.00037
  92        4PY         0.00243   0.00000   0.00000   0.00049   0.00064
  93        4PZ         0.00000   0.00000   0.00440   0.00000   0.00000
                          66        67        68        69        70
  66        4PY         0.01201
  67        4PZ         0.00000   0.28449
  68        5S          0.00000   0.00000   0.00606
  69        5PX         0.00000   0.00000   0.00000   0.00131
  70        5PY         0.00129   0.00000   0.00000   0.00000   0.00092
  71        5PZ         0.00000   0.04260   0.00000   0.00000   0.00000
  72        6D 0        0.00000   0.00000   0.00000   0.00000   0.00000
  73        6D+1        0.00000   0.00000   0.00000   0.00000   0.00000
  74        6D-1        0.00000   0.00000   0.00000   0.00000   0.00000
  75        6D+2        0.00000   0.00000   0.00000   0.00000   0.00000
  76        6D-2        0.00000   0.00000   0.00000   0.00000   0.00000
  77        7D 0        0.00000   0.00000   0.00000   0.00000   0.00000
  78        7D+1        0.00000   0.00000   0.00000   0.00000   0.00000
  79        7D-1        0.00000   0.00000   0.00000   0.00000   0.00000
  80        7D+2        0.00000   0.00000   0.00000   0.00000   0.00000
  81        7D-2        0.00000   0.00000   0.00000   0.00000   0.00000
  82 4   H  1S          0.00289   0.00000   0.00179   0.00095   0.00004
  83        2S          0.00666   0.00000   0.00635   0.00354   0.00010
  84        3S          0.00121   0.00000   0.00068   0.00112   0.00019
  85        4PX         0.00031   0.00000   0.00008  -0.00007   0.00000
  86        4PY        -0.00006   0.00000   0.00003   0.00001   0.00002
  87        4PZ         0.00000   0.00440   0.00000   0.00000   0.00000
  88 5   H  1S          0.00273   0.00000   0.00138   0.00092   0.00005
  89        2S          0.00597   0.00000   0.00449   0.00338   0.00014
  90        3S          0.00099   0.00000  -0.00028   0.00100   0.00020
  91        4PX         0.00029   0.00000   0.00007  -0.00007   0.00000
  92        4PY        -0.00004   0.00000   0.00002   0.00001   0.00002
  93        4PZ         0.00000   0.00479   0.00000   0.00000   0.00000
                          71        72        73        74        75
  71        5PZ         0.01496
  72        6D 0        0.00000   0.00018
  73        6D+1        0.00000   0.00000   0.00000
  74        6D-1        0.00000   0.00000   0.00000   0.00013
  75        6D+2        0.00000   0.00000   0.00000   0.00000   0.00053
  76        6D-2        0.00000   0.00000   0.00000   0.00000   0.00000
  77        7D 0        0.00000   0.00006   0.00000   0.00000   0.00000
  78        7D+1        0.00000   0.00000   0.00000   0.00000   0.00000
  79        7D-1        0.00000   0.00000   0.00000   0.00014   0.00000
  80        7D+2        0.00000   0.00000   0.00000   0.00000   0.00021
  81        7D-2        0.00000   0.00000   0.00000   0.00000   0.00000
  82 4   H  1S          0.00000   0.00012   0.00000   0.00000   0.00018
  83        2S          0.00000   0.00011   0.00000   0.00000   0.00016
  84        3S          0.00000   0.00000   0.00000   0.00000   0.00001
  85        4PX         0.00000   0.00002   0.00000   0.00000   0.00000
  86        4PY         0.00000   0.00001   0.00000   0.00000  -0.00001
  87        4PZ         0.00043   0.00000   0.00000  -0.00003   0.00000
  88 5   H  1S          0.00000   0.00016   0.00000   0.00000   0.00027
  89        2S          0.00000   0.00013   0.00000   0.00000   0.00021
  90        3S          0.00000   0.00000   0.00000   0.00000   0.00001
  91        4PX         0.00000   0.00003   0.00000   0.00000   0.00000
  92        4PY         0.00000   0.00001   0.00000   0.00000   0.00000
  93        4PZ         0.00046   0.00000   0.00000  -0.00003   0.00000
                          76        77        78        79        80
  76        6D-2        0.00028
  77        7D 0        0.00000   0.00011
  78        7D+1        0.00000   0.00000   0.00000
  79        7D-1        0.00000   0.00000   0.00000   0.00073
  80        7D+2        0.00000   0.00000   0.00000   0.00000   0.00058
  81        7D-2        0.00007   0.00000   0.00000   0.00000   0.00000
  82 4   H  1S          0.00045   0.00031   0.00000   0.00000   0.00015
  83        2S          0.00047   0.00038   0.00000   0.00000   0.00017
  84        3S          0.00002   0.00001   0.00000   0.00000   0.00003
  85        4PX         0.00006   0.00000   0.00000   0.00000  -0.00002
  86        4PY         0.00001   0.00000   0.00000   0.00000  -0.00005
  87        4PZ         0.00000   0.00000   0.00000  -0.00011   0.00000
  88 5   H  1S          0.00052   0.00026   0.00000   0.00000   0.00013
  89        2S          0.00047   0.00028   0.00000   0.00000   0.00012
  90        3S          0.00002   0.00000   0.00000   0.00000   0.00003
  91        4PX         0.00007   0.00000   0.00000   0.00000  -0.00002
  92        4PY        -0.00001   0.00000   0.00000   0.00000  -0.00006
  93        4PZ         0.00000   0.00000   0.00000  -0.00011   0.00000
                          81        82        83        84        85
  81        7D-2        0.00243
  82 4   H  1S         -0.00092   0.07368
  83        2S         -0.00163   0.07848   0.16926
  84        3S          0.00000   0.00879   0.02838   0.00958
  85        4PX        -0.00006   0.00000   0.00000   0.00000   0.00133
  86        4PY         0.00004   0.00000   0.00000   0.00000   0.00000
  87        4PZ         0.00000   0.00000   0.00000   0.00000   0.00000
  88 5   H  1S         -0.00103  -0.00001  -0.00079  -0.00137   0.00000
  89        2S         -0.00165  -0.00078  -0.00732  -0.00595  -0.00007
  90        3S          0.00000  -0.00125  -0.00553  -0.00282  -0.00010
  91        4PX        -0.00005   0.00000  -0.00007  -0.00011   0.00002
  92        4PY         0.00004   0.00000   0.00001   0.00001   0.00000
  93        4PZ         0.00000   0.00000   0.00000   0.00000   0.00000
                          86        87        88        89        90
  86        4PY         0.00063
  87        4PZ         0.00000   0.00091
  88 5   H  1S          0.00000   0.00000   0.07799
  89        2S         -0.00001   0.00000   0.08078   0.16948
  90        3S         -0.00001   0.00000   0.00824   0.02596   0.00818
  91        4PX         0.00000   0.00000   0.00000   0.00000   0.00000
  92        4PY         0.00000   0.00000   0.00000   0.00000   0.00000
  93        4PZ         0.00000   0.00001   0.00000   0.00000   0.00000
                          91        92        93
  91        4PX         0.00143
  92        4PY         0.00000   0.00062
  93        4PZ         0.00000   0.00000   0.00100
     Gross orbital populations:
                           1
   1 1   N  1S          1.09524
   2        2S          0.89597
   3        2PX         0.23484
   4        2PY         0.29448
   5        2PZ         0.24320
   6        3S          0.90517
   7        3PX         0.53886
   8        3PY         0.60759
   9        3PZ         0.55899
  10        4S          0.55506
  11        4PX         0.32008
  12        4PY         0.07158
  13        4PZ         0.36593
  14        5S         -0.20058
  15        5PX         0.00005
  16        5PY         0.00991
  17        5PZ         0.00430
  18        6D 0        0.00126
  19        6D+1        0.00000
  20        6D-1        0.00578
  21        6D+2        0.00360
  22        6D-2        0.00340
  23        7D 0        0.00264
  24        7D+1        0.00000
  25        7D-1        0.07494
  26        7D+2        0.00662
  27        7D-2        0.02950
  28 2   N  1S          1.09560
  29        2S          0.89530
  30        2PX         0.17682
  31        2PY         0.30529
  32        2PZ         0.25668
  33        3S          0.97301
  34        3PX         0.41426
  35        3PY         0.60416
  36        3PZ         0.56312
  37        4S          0.98358
  38        4PX         0.26266
  39        4PY         0.15930
  40        4PZ         0.36313
  41        5S          0.00450
  42        5PX         0.00230
  43        5PY         0.08801
  44        5PZ         0.00866
  45        6D 0        0.00202
  46        6D+1        0.00000
  47        6D-1        0.00408
  48        6D+2        0.00597
  49        6D-2        0.00435
  50        7D 0        0.00212
  51        7D+1        0.00000
  52        7D-1        0.02868
  53        7D+2        0.00662
  54        7D-2        0.02694
  55 3   C  1S          1.10374
  56        2S          0.88577
  57        2PX         0.22853
  58        2PY         0.12917
  59        2PZ         0.25144
  60        3S          0.71549
  61        3PX         0.49626
  62        3PY         0.32416
  63        3PZ         0.57579
  64        4S          0.52763
  65        4PX         0.27846
  66        4PY         0.10780
  67        4PZ         0.58994
  68        5S          0.06815
  69        5PX         0.02268
  70        5PY         0.01625
  71        5PZ         0.07213
  72        6D 0        0.00145
  73        6D+1        0.00000
  74        6D-1        0.00089
  75        6D+2        0.00435
  76        6D-2        0.00273
  77        7D 0        0.00253
  78        7D+1        0.00000
  79        7D-1        0.01011
  80        7D+2        0.01127
  81        7D-2        0.01328
  82 4   H  1S          0.25367
  83        2S          0.49987
  84        3S          0.05926
  85        4PX         0.01313
  86        4PY         0.00672
  87        4PZ         0.01046
  88 5   H  1S          0.26749
  89        2S          0.50106
  90        3S          0.05064
  91        4PX         0.01384
  92        4PY         0.00657
  93        4PZ         0.01176
          Condensed to atoms (all electrons):
               1          2          3          4          5
     1  N    5.722354   0.592658   0.340862  -0.014066  -0.013409
     2  N    0.592658   6.725951  -0.038512  -0.023415  -0.019548
     3  C    0.340862  -0.038512   5.295847   0.420019   0.421789
     4  H   -0.014066  -0.023415   0.420019   0.486705  -0.026137
     5  H   -0.013409  -0.019548   0.421789  -0.026137   0.488659
 Mulliken charges:
               1
     1  N    0.371601
     2  N   -0.237134
     3  C   -0.440006
     4  H    0.156893
     5  H    0.148646
 Sum of Mulliken charges =   0.00000
 Mulliken charges with hydrogens summed into heavy atoms:
               1
     1  N    0.371601
     2  N   -0.237134
     3  C   -0.134467
 Electronic spatial extent (au):  <R**2>=            150.6709
 Charge=              0.0000 electrons
 Dipole moment (field-independent basis, Debye):
    X=              0.0068    Y=             -0.6815    Z=              0.0000  Tot=              0.6815
 Quadrupole moment (field-independent basis, Debye-Ang):
   XX=            -15.9316   YY=            -18.1682   ZZ=            -20.1945
   XY=             -0.0684   XZ=              0.0000   YZ=              0.0000
 Traceless Quadrupole moment (field-independent basis, Debye-Ang):
   XX=              2.1665   YY=             -0.0701   ZZ=             -2.0964
   XY=             -0.0684   XZ=              0.0000   YZ=              0.0000
 Octapole moment (field-independent basis, Debye-Ang**2):
  XXX=             -0.0284  YYY=             -4.3932  ZZZ=              0.0000  XYY=              0.1569
  XXY=             -0.6278  XXZ=              0.0000  XZZ=             -0.0147  YZZ=              4.5917
  YYZ=              0.0000  XYZ=              0.0000
 Hexadecapole moment (field-independent basis, Debye-Ang**3):
 XXXX=            -21.8113 YYYY=           -158.3739 ZZZZ=            -24.7355 XXXY=             -0.1280
 XXXZ=              0.0000 YYYX=             -0.5928 YYYZ=              0.0000 ZZZX=              0.0000
 ZZZY=              0.0000 XXYY=            -25.2164 XXZZ=             -8.2242 YYZZ=            -36.1502
 XXYZ=              0.0000 YYXZ=              0.0000 ZZXY=             -0.0099
 N-N= 5.863245169148D+01 E-N=-4.635480447079D+02  KE= 1.478699390436D+02
 Symmetry A'   KE= 1.418951580734D+02
 Symmetry A"   KE= 5.974780970132D+00
 Orbital energies and kinetic energies (alpha):
                                 1                 2
   1         O               -14.514074         22.061081
   2         O               -14.448160         22.059687
   3         O               -10.248184         15.975055
   4         O                -1.176161          2.609912
   5         O                -0.795053          1.797116
   6         O                -0.576352          1.634641
   7         O                -0.525132          1.560992
   8         O                -0.511562          1.704838
   9         O                -0.482695          2.056839
  10         O                -0.428694          1.192256
  11         O                -0.222989          1.282552
  12         V                -0.050144          1.949640
  13         V                -0.012520          1.793005
  14         V                 0.010778          0.505115
  15         V                 0.047941          0.458547
  16         V                 0.053046          0.237099
  17         V                 0.080276          0.506622
  18         V                 0.084633          1.068052
  19         V                 0.118003          0.912300
  20         V                 0.125083          0.440150
  21         V                 0.137308          0.383145
  22         V                 0.153945          0.664865
  23         V                 0.209272          0.645073
  24         V                 0.212778          0.775093
  25         V                 0.221062          0.490850
  26         V                 0.237389          0.748068
  27         V                 0.242329          0.555481
  28         V                 0.305513          0.550775
  29         V                 0.410562          1.044450
  30         V                 0.481322          1.206978
  31         V                 0.530449          1.518423
  32         V                 0.563595          1.479206
  33         V                 0.585001          1.099585
  34         V                 0.615851          1.630292
  35         V                 0.671640          1.633256
  36         V                 0.721854          1.644407
  37         V                 0.749004          1.854550
  38         V                 0.753909          1.398492
  39         V                 0.762998          1.865223
  40         V                 0.799837          2.428255
  41         V                 0.825714          1.510512
  42         V                 0.871526          1.986639
  43         V                 0.891163          1.857446
  44         V                 0.907225          2.423357
  45         V                 0.939626          2.634642
  46         V                 0.951929          2.417131
  47         V                 0.982369          1.685852
  48         V                 1.154583          2.847091
  49         V                 1.225096          2.830817
  50         V                 1.239604          1.896736
  51         V                 1.241926          2.126260
  52         V                 1.262251          2.094070
  53         V                 1.336797          2.234068
  54         V                 1.360465          2.052266
  55         V                 1.648729          2.457908
  56         V                 1.689577          2.390889
  57         V                 1.793294          2.778084
  58         V                 1.846634          2.459919
  59         V                 1.978306          3.744960
  60         V                 2.056919          3.425973
  61         V                 2.098026          3.326291
  62         V                 2.272315          3.934549
  63         V                 2.330855          3.682784
  64         V                 2.389747          4.487407
  65         V                 2.630158          4.050543
  66         V                 2.803441          6.309944
  67         V                 2.845040          4.401097
  68         V                 3.208985          6.084129
  69         V                 3.245453          4.915520
  70         V                 3.380387          5.156793
  71         V                 3.469536          6.264176
  72         V                 3.619193          5.622413
  73         V                 3.708884          8.886571
  74         V                 3.730047          8.939361
  75         V                 3.941317          6.706028
  76         V                 4.014599          8.747812
  77         V                 4.015983          8.849995
  78         V                 4.094343          6.209499
  79         V                 4.428910          8.678110
  80         V                 4.566259          7.110707
  81         V                 4.593987          7.087035
  82         V                 4.604695          7.144499
  83         V                 4.679255          8.076426
  84         V                 4.691223          7.237505
  85         V                 4.778705          7.287416
  86         V                 4.780523          7.945203
  87         V                 4.884884          8.975152
  88         V                 5.297830          7.963576
  89         V                 5.337237          7.997276
  90         V                 6.288940          9.555407
  91         V                23.978091         60.355379
  92         V                35.291266         89.009964
  93         V                36.181247         89.150632
 Total kinetic energy from orbitals= 1.478699390436D+02
 1|1|UNPC-DESKTOP-KC5UJLK|SP|RAPFD|6-311+G(2d,p)|C1H2N2|23122|05-Feb-20
 22|0||# apfd/6-311+g(2d,p) geom=connectivity pop=full int=ultrafine||E
 nergy Calculation(GC)||0,1|N,0,-0.18462237,-0.23464351,0.|N,0,-0.34108
 893,-1.31525793,0.|C,0,0.03178327,1.25996313,0.|H,0,-0.83504338,1.9574
 7507,0.|H,0,1.02867475,1.64944138,0.||Version=IA32W-G09RevD.01|State=1
 -A'|HF=-148.6210251|RMSD=2.134e-009|Dipole=0.0344577,0.2658956,0.|Quad
 rupole=1.5648842,-0.0062981,-1.5585861,-0.276924,0.,0.|PG=CS [SG(C1H2N
 2)]||@


 I take a simple view of life: keep your eyes open and get on with it.
 -- Laurence Olivier
 Job cpu time:       0 days  0 hours  0 minutes 12.0 seconds.
 File lengths (MBytes):  RWF=      5 Int=      0 D2E=      0 Chk=      1 Scr=      1
 Normal termination of Gaussian 09 at Sat Feb 05 15:10:08 2022.
