 Entering Link 1 = C:\G09W\l1.exe PID=      1984.
  
 Copyright (c) 1988,1990,1992,1993,1995,1998,2003,2009,2013,
            Gaussian, Inc.  All Rights Reserved.
  
 This is part of the Gaussian(R) 09 program.  It is based on
 the Gaussian(R) 03 system (copyright 2003, Gaussian, Inc.),
 the Gaussian(R) 98 system (copyright 1998, Gaussian, Inc.),
 the Gaussian(R) 94 system (copyright 1995, Gaussian, Inc.),
 the Gaussian 92(TM) system (copyright 1992, Gaussian, Inc.),
 the Gaussian 90(TM) system (copyright 1990, Gaussian, Inc.),
 the Gaussian 88(TM) system (copyright 1988, Gaussian, Inc.),
 the Gaussian 86(TM) system (copyright 1986, Carnegie Mellon
 University), and the Gaussian 82(TM) system (copyright 1983,
 Carnegie Mellon University). Gaussian is a federally registered
 trademark of Gaussian, Inc.
  
 This software contains proprietary and confidential information,
 including trade secrets, belonging to Gaussian, Inc.
  
 This software is provided under written license and may be
 used, copied, transmitted, or stored only in accord with that
 written license.
  
 The following legend is applicable only to US Government
 contracts under FAR:
  
                    RESTRICTED RIGHTS LEGEND
  
 Use, reproduction and disclosure by the US Government is
 subject to restrictions as set forth in subparagraphs (a)
 and (c) of the Commercial Computer Software - Restricted
 Rights clause in FAR 52.227-19.
  
 Gaussian, Inc.
 340 Quinnipiac St., Bldg. 40, Wallingford CT 06492
  
  
 ---------------------------------------------------------------
 Warning -- This program may not be used in any manner that
 competes with the business of Gaussian, Inc. or will provide
 assistance to any competitor of Gaussian, Inc.  The licensee
 of this program is prohibited from giving any competitor of
 Gaussian, Inc. access to this program.  By using this program,
 the user acknowledges that Gaussian, Inc. is engaged in the
 business of creating and licensing software in the field of
 computational chemistry and represents and warrants to the
 licensee that it is not a competitor of Gaussian, Inc. and that
 it will not use this program in any manner prohibited above.
 ---------------------------------------------------------------
  

 Cite this work as:
 Gaussian 09, Revision D.01,
 M. J. Frisch, G. W. Trucks, H. B. Schlegel, G. E. Scuseria, 
 M. A. Robb, J. R. Cheeseman, G. Scalmani, V. Barone, B. Mennucci, 
 G. A. Petersson, H. Nakatsuji, M. Caricato, X. Li, H. P. Hratchian, 
 A. F. Izmaylov, J. Bloino, G. Zheng, J. L. Sonnenberg, M. Hada, 
 M. Ehara, K. Toyota, R. Fukuda, J. Hasegawa, M. Ishida, T. Nakajima, 
 Y. Honda, O. Kitao, H. Nakai, T. Vreven, J. A. Montgomery, Jr., 
 J. E. Peralta, F. Ogliaro, M. Bearpark, J. J. Heyd, E. Brothers, 
 K. N. Kudin, V. N. Staroverov, T. Keith, R. Kobayashi, J. Normand, 
 K. Raghavachari, A. Rendell, J. C. Burant, S. S. Iyengar, J. Tomasi, 
 M. Cossi, N. Rega, J. M. Millam, M. Klene, J. E. Knox, J. B. Cross, 
 V. Bakken, C. Adamo, J. Jaramillo, R. Gomperts, R. E. Stratmann, 
 O. Yazyev, A. J. Austin, R. Cammi, C. Pomelli, J. W. Ochterski, 
 R. L. Martin, K. Morokuma, V. G. Zakrzewski, G. A. Voth, 
 P. Salvador, J. J. Dannenberg, S. Dapprich, A. D. Daniels, 
 O. Farkas, J. B. Foresman, J. V. Ortiz, J. Cioslowski, 
 and D. J. Fox, Gaussian, Inc., Wallingford CT, 2013.
 
 ******************************************
 Gaussian 09:  IA32W-G09RevD.01 24-Apr-2013
                17-Mar-2022 
 ******************************************
 %nprocshared=4
 Will use up to    4 processors via shared memory.
 %mem=1GB
 ----------------------------------------------------------------
 # irc=(calcfc,maxpoints=50,stepsize=5,LQA) pm6 geom=connectivity
 ----------------------------------------------------------------
 1/10=4,14=-1,18=10,26=1,38=1,39=5,42=50,44=3,45=2,57=2/1,23;
 2/12=2,17=6,18=5,29=1,40=1/2;
 3/5=2,16=1,25=1,41=3900000,71=2,140=1/1,2,3;
 4/35=1/1;
 5/5=2,35=1,38=5/2;
 8/6=4,10=90,11=11/1;
 11/6=1,8=1,9=11,15=111,16=1/1,2,10;
 10/6=1,13=1/2;
 6/7=2,8=2,9=2,10=2,28=1/1;
 7/10=1,18=20,25=1/1,2,3,16;
 1/10=4,14=-1,18=10,26=1,39=5,42=50,44=3,45=2/23(2);
 2/29=1/2;
 99/5=20/99;
 2/29=1/2;
 3/5=2,16=1,25=1,41=3900000,71=2,135=20,140=1/1,2,3;
 4/5=5,16=3,35=1/1;
 5/5=2,35=1,38=5/2;
 8/6=4,10=90,11=11/1;
 11/6=1,8=1,9=11,15=111,16=1/1,2,10;
 10/6=1,13=1/2;
 7/10=1,18=20,25=1/1,2,3,16;
 1/14=-1,18=10,26=1,39=5,42=50,44=3,45=2/23(-8);
 2/29=1/2;
 6/7=2,8=2,9=2,10=2,19=2,28=1/1;
 99/5=20,9=1/99;
 ----------------------
 Energy Calculation(GC)
 ----------------------
 Symbolic Z-matrix:
 Charge = -1 Multiplicity = 1
 C                     1.32782  -1.18427   0.01251 
 H                     1.12333  -1.78448  -0.86566 
 H                     1.13572  -1.75176   0.91364 
 H                     2.51108  -0.8734   -0.0147 
 C                     0.81154   0.18933  -0.01317 
 H                     0.95856   0.78974   0.88811 
 H                     0.96081   0.75191  -0.94109 
 Br                   -1.36793   0.09335   0.00244 
 O                     3.09337   0.58419  -0.08001 
 H                     3.60497   0.89692   0.57857 
 
 IRC-IRC-IRC-IRC-IRC-IRC-IRC-IRC-IRC-IRC-IRC-IRC-IRC-IRC-IRC-IRC-IRC-IRC
 ------------------------------------------------------------------------
 INPUT DATA FOR L123
 ------------------------------------------------------------------------
 GENERAL PARAMETERS:
 Follow reaction path in both directions.
 Maximum points per path      =  50
 Step size                    =   0.050 bohr
 Integration scheme           = LQA                                 
 Initial Hessian              = CalcFC
 Hessian evaluation           = All updating
 Hessian updating method      = Bofill                              
 ------------------------------------------------------------------------
 IRC-IRC-IRC-IRC-IRC-IRC-IRC-IRC-IRC-IRC-IRC-IRC-IRC-IRC-IRC-IRC-IRC-IRC
                          Input orientation:                          
 ---------------------------------------------------------------------
 Center     Atomic      Atomic             Coordinates (Angstroms)
 Number     Number       Type             X           Y           Z
 ---------------------------------------------------------------------
      1          6           0        1.327821   -1.184272    0.012505
      2          1           0        1.123334   -1.784482   -0.865657
      3          1           0        1.135722   -1.751757    0.913641
      4          1           0        2.511083   -0.873397   -0.014704
      5          6           0        0.811539    0.189330   -0.013171
      6          1           0        0.958555    0.789735    0.888105
      7          1           0        0.960812    0.751912   -0.941093
      8         35           0       -1.367931    0.093349    0.002435
      9          8           0        3.093370    0.584187   -0.080011
     10          1           0        3.604968    0.896923    0.578571
 ---------------------------------------------------------------------
                    Distance matrix (angstroms):
                    1          2          3          4          5
     1  C    0.000000
     2  H    1.083160   0.000000
     3  H    1.082122   1.779642   0.000000
     4  H    1.223721   1.865488   1.877487   0.000000
     5  C    1.467647   2.172529   2.175292   2.004455   0.000000
     6  H    2.190830   3.119203   2.547788   2.447737   1.092885
     7  H    2.189259   2.542715   3.120736   2.429643   1.095363
     8  Br   2.983202   3.238246   3.240832   3.997704   2.181638
     9  O    2.500634   3.179446   3.205677   1.570947   2.316707
    10  H    3.136431   3.928643   3.636613   2.163930   2.941784
                    6          7          8          9         10
     6  H    0.000000
     7  H    1.829590   0.000000
     8  Br   2.584938   2.597498   0.000000
     9  O    2.353069   2.305948   4.488978   0.000000
    10  H    2.666609   3.053190   5.070245   0.890655   0.000000
 Symmetry turned off by external request.
 Stoichiometry    C2H6BrO(1-)
 Framework group  C1[X(C2H6BrO)]
 Deg. of freedom    24
 Full point group                 C1      NOp   1
 Rotational constants (GHZ):     13.9859686      1.4301879      1.3226734
 Standard basis: VSTO-6G (5D, 7F)
    27 basis functions,   168 primitive gaussians,    28 cartesian basis functions
    14 alpha electrons       14 beta electrons
       nuclear repulsion energy        91.4548733478 Hartrees.
 Integral buffers will be    262144 words long.
 Regular integral format.
 Two-electron integral symmetry is turned off.
 Do NDO integrals.
 One-electron integrals computed using PRISM.
 NBasis=    27 RedAO= F EigKep=  0.00D+00  NBF=    27
 NBsUse=    27 1.00D-04 EigRej=  0.00D+00 NBFU=    27
 Nonelectrostatic core Hamiltonian diagonalized for initial guess.
 Overlap will be assumed to be unity.
 Keep J ints in memory in canonical form, NReq=1874650.
 Requested convergence on RMS density matrix=1.00D-08 within 128 cycles.
 Requested convergence on MAX density matrix=1.00D-06.
 Requested convergence on             energy=1.00D-06.
 No special actions if energy rises.
 SCF Done:  E(RPM6) = -0.108444814438     A.U. after   16 cycles
            NFock= 15  Conv=0.89D-08     -V/T= 0.9919
 Range of M.O.s used for correlation:     1    27
 NBasis=    27 NAE=    14 NBE=    14 NFC=     0 NFV=     0
 NROrb=     27 NOA=    14 NOB=    14 NVA=    13 NVB=    13
 Symmetrizing basis deriv contribution to polar:
 IMax=3 JMax=2 DiffMx= 0.00D+00
 G2DrvN: will do    11 centers at a time, making    1 passes.
 Calling FoFCou, ICntrl=  3107 FMM=F I1Cent=   0 AccDes= 0.00D+00.
 End of G2Drv F.D. properties file   721 does not exist.
 End of G2Drv F.D. properties file   722 does not exist.
 End of G2Drv F.D. properties file   788 does not exist.
          IDoAtm=1111111111
          Differentiating once with respect to nuclear coordinates.
          Electric field/nuclear overlap derivatives assumed to be zero.
 Keep J ints in memory in canonical form, NReq=1857637.
          There are    33 degrees of freedom in the 1st order CPHF.  IDoFFX=5 NUNeed=    33.
 LinEq1:  Iter=  0 NonCon=    30 RMS=2.40D-02 Max=1.59D-01 NDo=    30
 AX will form    33 AO Fock derivatives at one time.
 LinEq1:  Iter=  1 NonCon=    30 RMS=2.28D-03 Max=1.63D-02 NDo=    33
 LinEq1:  Iter=  2 NonCon=    30 RMS=3.63D-04 Max=2.19D-03 NDo=    33
 LinEq1:  Iter=  3 NonCon=    30 RMS=5.76D-05 Max=2.53D-04 NDo=    33
 LinEq1:  Iter=  4 NonCon=    30 RMS=1.47D-05 Max=1.05D-04 NDo=    33
 LinEq1:  Iter=  5 NonCon=    30 RMS=3.09D-06 Max=2.02D-05 NDo=    33
 LinEq1:  Iter=  6 NonCon=    30 RMS=4.75D-07 Max=2.99D-06 NDo=    33
 LinEq1:  Iter=  7 NonCon=    26 RMS=6.45D-08 Max=3.20D-07 NDo=    33
 LinEq1:  Iter=  8 NonCon=     2 RMS=1.07D-08 Max=5.89D-08 NDo=    33
 LinEq1:  Iter=  9 NonCon=     0 RMS=2.19D-09 Max=1.21D-08 NDo=    33
 Linear equations converged to 1.000D-08 1.000D-07 after     9 iterations.
 End of Minotr F.D. properties file   721 does not exist.
 End of Minotr F.D. properties file   722 does not exist.
 End of Minotr F.D. properties file   788 does not exist.

 **********************************************************************

            Population analysis using the SCF density.

 **********************************************************************

 Alpha  occ. eigenvalues --   -0.88108  -0.84398  -0.75894  -0.63024  -0.42858
 Alpha  occ. eigenvalues --   -0.39636  -0.35600  -0.30698  -0.28393  -0.24806
 Alpha  occ. eigenvalues --   -0.22343  -0.22230  -0.16955  -0.15685
 Alpha virt. eigenvalues --    0.16612   0.32156   0.35380   0.36373   0.37680
 Alpha virt. eigenvalues --    0.38086   0.40498   0.47136   4.46266   4.46363
 Alpha virt. eigenvalues --    4.46867   4.47221   4.47254
          Condensed to atoms (all electrons):
               1          2          3          4          5          6
     1  C    4.647649   0.000000   0.000000   0.000000   0.000000   0.000000
     2  H    0.000000   0.848788   0.000000   0.000000   0.000000   0.000000
     3  H    0.000000   0.000000   0.853620   0.000000   0.000000   0.000000
     4  H    0.000000   0.000000   0.000000   0.659374   0.000000   0.000000
     5  C    0.000000   0.000000   0.000000   0.000000   3.811776   0.000000
     6  H    0.000000   0.000000   0.000000   0.000000   0.000000   0.869701
     7  H    0.000000   0.000000   0.000000   0.000000   0.000000   0.000000
     8  Br   0.000000   0.000000   0.000000   0.000000   0.000000   0.000000
     9  O    0.000000   0.000000   0.000000   0.000000   0.000000   0.000000
    10  H    0.000000   0.000000   0.000000   0.000000   0.000000   0.000000
               7          8          9         10
     1  C    0.000000   0.000000   0.000000   0.000000
     2  H    0.000000   0.000000   0.000000   0.000000
     3  H    0.000000   0.000000   0.000000   0.000000
     4  H    0.000000   0.000000   0.000000   0.000000
     5  C    0.000000   0.000000   0.000000   0.000000
     6  H    0.000000   0.000000   0.000000   0.000000
     7  H    0.854888   0.000000   0.000000   0.000000
     8  Br   0.000000   7.584300   0.000000   0.000000
     9  O    0.000000   0.000000   7.136895   0.000000
    10  H    0.000000   0.000000   0.000000   0.733009
 Mulliken charges:
               1
     1  C   -0.647649
     2  H    0.151212
     3  H    0.146380
     4  H    0.340626
     5  C    0.188224
     6  H    0.130299
     7  H    0.145112
     8  Br  -0.584300
     9  O   -1.136895
    10  H    0.266991
 Sum of Mulliken charges =  -1.00000
 Mulliken charges with hydrogens summed into heavy atoms:
               1
     1  C   -0.009431
     5  C    0.463635
     8  Br  -0.584300
     9  O   -0.869904
 APT charges:
               1
     1  C   -0.647649
     2  H    0.151212
     3  H    0.146380
     4  H    0.340626
     5  C    0.188224
     6  H    0.130299
     7  H    0.145112
     8  Br  -0.584300
     9  O   -1.136895
    10  H    0.266991
 Sum of APT charges =  -1.00000
 APT charges with hydrogens summed into heavy atoms:
               1
     1  C   -0.009431
     5  C    0.463635
     8  Br  -0.584300
     9  O   -0.869904
 Charge=             -1.0000 electrons
 Dipole moment (field-independent basis, Debye):
    X=             -5.1476    Y=             -1.3798    Z=              1.2969  Tot=              5.4848
 N-N= 9.145487334781D+01 E-N=-1.578647856713D+02  KE=-1.344928598099D+01
  Exact polarizability:   0.000   0.000   0.000   0.000   0.000   0.000
 Approx polarizability:  48.690   2.066  16.906   0.524   0.491  12.391
 Calling FoFJK, ICntrl=    100147 FMM=F ISym2X=0 I1Cent= 0 IOpClX= 0 NMat=1 NMatS=1 NMatT=0.
 -------------------------------------------------------------------
 Center     Atomic                   Forces (Hartrees/Bohr)
 Number     Number              X              Y              Z
 -------------------------------------------------------------------
      1        6           0.000010378   -0.000005248   -0.000004104
      2        1          -0.000003863   -0.000003890    0.000001557
      3        1           0.000007652   -0.000001286    0.000002506
      4        1          -0.000002664    0.000002940   -0.000007182
      5        6           0.000038609    0.000018293   -0.000001127
      6        1          -0.000009998    0.000001827    0.000002910
      7        1          -0.000002548    0.000005478   -0.000001229
      8       35          -0.000019542   -0.000000518   -0.000001411
      9        8          -0.000021370   -0.000031275    0.000011232
     10        1           0.000003346    0.000013679   -0.000003153
 -------------------------------------------------------------------
 Cartesian Forces:  Max     0.000038609 RMS     0.000012177
 IRC-IRC-IRC-IRC-IRC-IRC-IRC-IRC-IRC-IRC-IRC-IRC-IRC-IRC-IRC-IRC-IRC-IRC
          ******** Start new reaction path calculation ********
 Supplied step size of   0.0500 bohr.
    Integration on MW PES will use step size of   0.0588 sqrt(amu)*bohr.
 Point Number:   0          Path Number:   1
 Calculating another point on the path.
 IRC-IRC-IRC-IRC-IRC-IRC-IRC-IRC-IRC-IRC-IRC-IRC-IRC-IRC-IRC-IRC-IRC-IRC
                          Input orientation:                          
 ---------------------------------------------------------------------
 Center     Atomic      Atomic             Coordinates (Angstroms)
 Number     Number       Type             X           Y           Z
 ---------------------------------------------------------------------
      1          6           0        1.506944   -1.208329    0.016584
      2          1           0        1.295162   -1.807351   -0.861473
      3          1           0        1.309003   -1.774488    0.918067
      4          1           0        2.684787   -0.916108   -0.011134
      5          6           0        0.993993    0.168439   -0.008800
      6          1           0        1.140151    0.767731    0.893006
      7          1           0        1.142727    0.730305   -0.936975
      8         35           0       -1.188101    0.071045    0.006691
      9          8           0        3.270518    0.562951   -0.075523
     10          1           0        3.779431    0.884029    0.580480
 ---------------------------------------------------------------------
                    Distance matrix (angstroms):
                    1          2          3          4          5
     1  C    0.000000
     2  H    1.083819   0.000000
     3  H    1.082769   1.779898   0.000000
     4  H    1.213869   1.857000   1.868961   0.000000
     5  C    1.469440   2.172901   2.175610   2.008740   0.000000
     6  H    2.192593   3.119819   2.547944   2.457373   1.092597
     7  H    2.190944   2.543352   3.121350   2.438404   1.095137
     8  Br   2.983314   3.232442   3.236067   3.996756   2.184321
     9  O    2.501222   3.184035   3.209110   1.592119   2.311420
    10  H    3.140086   3.936286   3.644818   2.188321   2.935641
                    6          7          8          9         10
     6  H    0.000000
     7  H    1.830366   0.000000
     8  Br   2.586829   2.599594   0.000000
     9  O    2.349138   2.301653   4.486426   0.000000
    10  H    2.660263   3.046065   5.066217   0.890182   0.000000
 Symmetry turned off by external request.
 Stoichiometry    C2H6BrO(1-)
 Framework group  C1[X(C2H6BrO)]
 Deg. of freedom    24
 Full point group                 C1      NOp   1
 Rotational constants (GHZ):     13.9346923      1.4315989      1.3234103
 Standard basis: VSTO-6G (5D, 7F)
    27 basis functions,   168 primitive gaussians,    28 cartesian basis functions
    14 alpha electrons       14 beta electrons
       nuclear repulsion energy        91.4474288538 Hartrees.
 Integral buffers will be    262144 words long.
 Regular integral format.
 Two-electron integral symmetry is turned off.
 Do NDO integrals.
 One-electron integrals computed using PRISM.
 NBasis=    27 RedAO= F EigKep=  0.00D+00  NBF=    27
 NBsUse=    27 1.00D-04 EigRej=  0.00D+00 NBFU=    27
 Initial guess from the checkpoint file:  "C:\G09W\gxx.chk"
 B after Tr=     0.338833   -0.042287    0.008014
         Rot=    1.000000    0.000068   -0.000010    0.000057 Ang=   0.01 deg.
 Overlap will be assumed to be unity.
 Keep J ints in memory in canonical form, NReq=1874650.
 Requested convergence on RMS density matrix=1.00D-08 within 128 cycles.
 Requested convergence on MAX density matrix=1.00D-06.
 Requested convergence on             energy=1.00D-06.
 No special actions if energy rises.
 SCF Done:  E(RPM6) = -0.108461569593     A.U. after   12 cycles
            NFock= 11  Conv=0.35D-08     -V/T= 0.9919
 Range of M.O.s used for correlation:     1    27
 NBasis=    27 NAE=    14 NBE=    14 NFC=     0 NFV=     0
 NROrb=     27 NOA=    14 NOB=    14 NVA=    13 NVB=    13
 Symmetrizing basis deriv contribution to polar:
 IMax=3 JMax=2 DiffMx= 0.00D+00
 Calling FoFJK, ICntrl=      2147 FMM=F ISym2X=0 I1Cent= 0 IOpClX= 0 NMat=1 NMatS=1 NMatT=0.
 -------------------------------------------------------------------
 Center     Atomic                   Forces (Hartrees/Bohr)
 Number     Number              X              Y              Z
 -------------------------------------------------------------------
      1        6          -0.000178086   -0.000411260   -0.000045115
      2        1          -0.000146753   -0.000003640    0.000009470
      3        1          -0.000108312   -0.000001210   -0.000000545
      4        1          -0.000028404   -0.000337622   -0.000021334
      5        6           0.000769751    0.000295055    0.000025274
      6        1           0.000023468    0.000004970    0.000014080
      7        1           0.000037507    0.000016116   -0.000002697
      8       35           0.000461904   -0.000021661   -0.000007636
      9        8          -0.000730813    0.000274805    0.000074086
     10        1          -0.000100262    0.000184447   -0.000045584
 -------------------------------------------------------------------
 Cartesian Forces:  Max     0.000769751 RMS     0.000252276
 IRC-IRC-IRC-IRC-IRC-IRC-IRC-IRC-IRC-IRC-IRC-IRC-IRC-IRC-IRC-IRC-IRC-IRC
 Pt  1 Step number   1 out of a maximum of  20
 Point Number:   1          Path Number:   1
   CHANGE IN THE REACTION COORDINATE =    0.05881
   NET REACTION COORDINATE UP TO THIS POINT =    0.05881
  # OF POINTS ALONG THE PATH =   1
  # OF STEPS =   1

 Calculating another point on the path.
 IRC-IRC-IRC-IRC-IRC-IRC-IRC-IRC-IRC-IRC-IRC-IRC-IRC-IRC-IRC-IRC-IRC-IRC
                          Input orientation:                          
 ---------------------------------------------------------------------
 Center     Atomic      Atomic             Coordinates (Angstroms)
 Number     Number       Type             X           Y           Z
 ---------------------------------------------------------------------
      1          6           0        1.506466   -1.210081    0.016388
      2          1           0        1.287425   -1.807909   -0.861452
      3          1           0        1.303073   -1.774824    0.918265
      4          1           0        2.679814   -0.935308   -0.011976
      5          6           0        0.997427    0.169806   -0.008676
      6          1           0        1.142089    0.767959    0.893755
      7          1           0        1.145104    0.731034   -0.937113
      8         35           0       -1.187779    0.071032    0.006685
      9          8           0        3.267961    0.563897   -0.075298
     10          1           0        3.773898    0.893734    0.578230
 ---------------------------------------------------------------------
                    Distance matrix (angstroms):
                    1          2          3          4          5
     1  C    0.000000
     2  H    1.084427   0.000000
     3  H    1.083367   1.780094   0.000000
     4  H    1.205426   1.849808   1.861600   0.000000
     5  C    1.470998   2.173173   2.175827   2.012887   0.000000
     6  H    2.194353   3.120412   2.547992   2.466996   1.092290
     7  H    2.192641   2.544054   3.121972   2.447020   1.094888
     8  Br   2.983337   3.226565   3.231487   3.996417   2.187491
     9  O    2.501654   3.188421   3.212097   1.611689   2.305444
    10  H    3.143717   3.943870   3.652643   2.211506   2.928707
                    6          7          8          9         10
     6  H    0.000000
     7  H    1.831243   0.000000
     8  Br   2.588606   2.601673   0.000000
     9  O    2.345216   2.297212   4.483666   0.000000
    10  H    2.653639   3.038634   5.061793   0.889868   0.000000
 Symmetry turned off by external request.
 Stoichiometry    C2H6BrO(1-)
 Framework group  C1[X(C2H6BrO)]
 Deg. of freedom    24
 Full point group                 C1      NOp   1
 Rotational constants (GHZ):     13.8850701      1.4330550      1.3241974
 Standard basis: VSTO-6G (5D, 7F)
    27 basis functions,   168 primitive gaussians,    28 cartesian basis functions
    14 alpha electrons       14 beta electrons
       nuclear repulsion energy        91.4420811757 Hartrees.
 Integral buffers will be    262144 words long.
 Regular integral format.
 Two-electron integral symmetry is turned off.
 Do NDO integrals.
 One-electron integrals computed using PRISM.
 NBasis=    27 RedAO= F EigKep=  0.00D+00  NBF=    27
 NBsUse=    27 1.00D-04 EigRej=  0.00D+00 NBFU=    27
 Initial guess from the checkpoint file:  "C:\G09W\gxx.chk"
 B after Tr=    -0.000346   -0.000111   -0.000033
         Rot=    1.000000    0.000068   -0.000010    0.000049 Ang=   0.01 deg.
 Overlap will be assumed to be unity.
 Keep J ints in memory in canonical form, NReq=1874650.
 Requested convergence on RMS density matrix=1.00D-08 within 128 cycles.
 Requested convergence on MAX density matrix=1.00D-06.
 Requested convergence on             energy=1.00D-06.
 No special actions if energy rises.
 SCF Done:  E(RPM6) = -0.108508269157     A.U. after   12 cycles
            NFock= 11  Conv=0.36D-08     -V/T= 0.9919
 Range of M.O.s used for correlation:     1    27
 NBasis=    27 NAE=    14 NBE=    14 NFC=     0 NFV=     0
 NROrb=     27 NOA=    14 NOB=    14 NVA=    13 NVB=    13
 Symmetrizing basis deriv contribution to polar:
 IMax=3 JMax=2 DiffMx= 0.00D+00
 Calling FoFJK, ICntrl=      2147 FMM=F ISym2X=0 I1Cent= 0 IOpClX= 0 NMat=1 NMatS=1 NMatT=0.
 -------------------------------------------------------------------
 Center     Atomic                   Forces (Hartrees/Bohr)
 Number     Number              X              Y              Z
 -------------------------------------------------------------------
      1        6          -0.000342397   -0.000743990   -0.000080726
      2        1          -0.000262177    0.000003265    0.000018744
      3        1          -0.000206934    0.000002771   -0.000005513
      4        1          -0.000053890   -0.000609036   -0.000029520
      5        6           0.001523556    0.000513003    0.000054794
      6        1           0.000060274    0.000004074    0.000023285
      7        1           0.000073825    0.000020177   -0.000003132
      8       35           0.000853977   -0.000028040   -0.000014696
      9        8          -0.001432409    0.000518952    0.000114288
     10        1          -0.000213824    0.000318825   -0.000077525
 -------------------------------------------------------------------
 Cartesian Forces:  Max     0.001523556 RMS     0.000482328
 IRC-IRC-IRC-IRC-IRC-IRC-IRC-IRC-IRC-IRC-IRC-IRC-IRC-IRC-IRC-IRC-IRC-IRC
 Pt  2 Step number   1 out of a maximum of  20
 Point Number:   2          Path Number:   1
   CHANGE IN THE REACTION COORDINATE =    0.05876
   NET REACTION COORDINATE UP TO THIS POINT =    0.11757
  # OF POINTS ALONG THE PATH =   2
  # OF STEPS =   1

 Calculating another point on the path.
 IRC-IRC-IRC-IRC-IRC-IRC-IRC-IRC-IRC-IRC-IRC-IRC-IRC-IRC-IRC-IRC-IRC-IRC
                          Input orientation:                          
 ---------------------------------------------------------------------
 Center     Atomic      Atomic             Coordinates (Angstroms)
 Number     Number       Type             X           Y           Z
 ---------------------------------------------------------------------
      1          6           0        1.505861   -1.211832    0.016203
      2          1           0        1.279798   -1.808318   -0.861429
      3          1           0        1.297064   -1.775104    0.918407
      4          1           0        2.675591   -0.953429   -0.012749
      5          6           0        1.001238    0.171100   -0.008542
      6          1           0        1.144058    0.768132    0.894530
      7          1           0        1.147449    0.731677   -0.937283
      8         35           0       -1.187458    0.071024    0.006680
      9          8           0        3.265218    0.564816   -0.075118
     10          1           0        3.767692    0.903243    0.576393
 ---------------------------------------------------------------------
                    Distance matrix (angstroms):
                    1          2          3          4          5
     1  C    0.000000
     2  H    1.084960   0.000000
     3  H    1.083902   1.780230   0.000000
     4  H    1.198281   1.843727   1.855407   0.000000
     5  C    1.472331   2.173272   2.175881   2.016939   0.000000
     6  H    2.196046   3.120883   2.547946   2.476392   1.091963
     7  H    2.194271   2.544572   3.122487   2.455517   1.094617
     8  Br   2.983250   3.220698   3.226807   3.996627   2.191036
     9  O    2.502030   3.192482   3.214957   1.629913   2.298924
    10  H    3.146941   3.950887   3.659852   2.233160   2.920865
                    6          7          8          9         10
     6  H    0.000000
     7  H    1.832179   0.000000
     8  Br   2.590406   2.603713   0.000000
     9  O    2.341127   2.292622   4.480719   0.000000
    10  H    2.646303   3.030894   5.056745   0.889651   0.000000
 Symmetry turned off by external request.
 Stoichiometry    C2H6BrO(1-)
 Framework group  C1[X(C2H6BrO)]
 Deg. of freedom    24
 Full point group                 C1      NOp   1
 Rotational constants (GHZ):     13.8367391      1.4345721      1.3250476
 Standard basis: VSTO-6G (5D, 7F)
    27 basis functions,   168 primitive gaussians,    28 cartesian basis functions
    14 alpha electrons       14 beta electrons
       nuclear repulsion energy        91.4389700785 Hartrees.
 Integral buffers will be    262144 words long.
 Regular integral format.
 Two-electron integral symmetry is turned off.
 Do NDO integrals.
 One-electron integrals computed using PRISM.
 NBasis=    27 RedAO= F EigKep=  0.00D+00  NBF=    27
 NBsUse=    27 1.00D-04 EigRej=  0.00D+00 NBFU=    27
 Initial guess from the checkpoint file:  "C:\G09W\gxx.chk"
 B after Tr=    -0.000344   -0.000100   -0.000028
         Rot=    1.000000    0.000062   -0.000007    0.000045 Ang=   0.01 deg.
 Overlap will be assumed to be unity.
 Keep J ints in memory in canonical form, NReq=1874650.
 Requested convergence on RMS density matrix=1.00D-08 within 128 cycles.
 Requested convergence on MAX density matrix=1.00D-06.
 Requested convergence on             energy=1.00D-06.
 No special actions if energy rises.
 SCF Done:  E(RPM6) = -0.108581617144     A.U. after   11 cycles
            NFock= 10  Conv=0.97D-08     -V/T= 0.9919
 Range of M.O.s used for correlation:     1    27
 NBasis=    27 NAE=    14 NBE=    14 NFC=     0 NFV=     0
 NROrb=     27 NOA=    14 NOB=    14 NVA=    13 NVB=    13
 Symmetrizing basis deriv contribution to polar:
 IMax=3 JMax=2 DiffMx= 0.00D+00
 Calling FoFJK, ICntrl=      2147 FMM=F ISym2X=0 I1Cent= 0 IOpClX= 0 NMat=1 NMatS=1 NMatT=0.
 -------------------------------------------------------------------
 Center     Atomic                   Forces (Hartrees/Bohr)
 Number     Number              X              Y              Z
 -------------------------------------------------------------------
      1        6          -0.000430401   -0.001013995   -0.000106503
      2        1          -0.000355490   -0.000000086    0.000019137
      3        1          -0.000282034   -0.000000425   -0.000006066
      4        1          -0.000135688   -0.000822384   -0.000036417
      5        6           0.002301368    0.000705875    0.000078728
      6        1           0.000085147    0.000004608    0.000035461
      7        1           0.000103806    0.000027164   -0.000006920
      8       35           0.001172294   -0.000020265   -0.000018989
      9        8          -0.002136495    0.000681572    0.000130999
     10        1          -0.000322507    0.000437936   -0.000089429
 -------------------------------------------------------------------
 Cartesian Forces:  Max     0.002301368 RMS     0.000699360
 IRC-IRC-IRC-IRC-IRC-IRC-IRC-IRC-IRC-IRC-IRC-IRC-IRC-IRC-IRC-IRC-IRC-IRC
 Pt  3 Step number   1 out of a maximum of  20
 Point Number:   3          Path Number:   1
   CHANGE IN THE REACTION COORDINATE =    0.05878
   NET REACTION COORDINATE UP TO THIS POINT =    0.17635
  # OF POINTS ALONG THE PATH =   3
  # OF STEPS =   1

 Calculating another point on the path.
 IRC-IRC-IRC-IRC-IRC-IRC-IRC-IRC-IRC-IRC-IRC-IRC-IRC-IRC-IRC-IRC-IRC-IRC
                          Input orientation:                          
 ---------------------------------------------------------------------
 Center     Atomic      Atomic             Coordinates (Angstroms)
 Number     Number       Type             X           Y           Z
 ---------------------------------------------------------------------
      1          6           0        1.505223   -1.213563    0.016026
      2          1           0        1.272381   -1.808651   -0.861397
      3          1           0        1.291185   -1.775354    0.918520
      4          1           0        2.671719   -0.970706   -0.013483
      5          6           0        1.005341    0.172359   -0.008404
      6          1           0        1.145956    0.768271    0.895344
      7          1           0        1.149735    0.732287   -0.937485
      8         35           0       -1.187147    0.071021    0.006675
      9          8           0        3.262326    0.565681   -0.074971
     10          1           0        3.760972    0.912522    0.574890
 ---------------------------------------------------------------------
                    Distance matrix (angstroms):
                    1          2          3          4          5
     1  C    0.000000
     2  H    1.085456   0.000000
     3  H    1.084397   1.780327   0.000000
     4  H    1.191874   1.838275   1.849855   0.000000
     5  C    1.473520   2.173317   2.175886   2.020752   0.000000
     6  H    2.197713   3.121321   2.547873   2.485551   1.091624
     7  H    2.195880   2.545034   3.122984   2.463819   1.094331
     8  Br   2.983136   3.214964   3.222219   3.997055   2.194881
     9  O    2.502279   3.196216   3.217587   1.647143   2.291967
    10  H    3.149757   3.957371   3.666416   2.253709   2.912314
                    6          7          8          9         10
     6  H    0.000000
     7  H    1.833186   0.000000
     8  Br   2.592154   2.605711   0.000000
     9  O    2.337002   2.287953   4.477629   0.000000
    10  H    2.638524   3.022966   5.051225   0.889532   0.000000
 Symmetry turned off by external request.
 Stoichiometry    C2H6BrO(1-)
 Framework group  C1[X(C2H6BrO)]
 Deg. of freedom    24
 Full point group                 C1      NOp   1
 Rotational constants (GHZ):     13.7897489      1.4361244      1.3259390
 Standard basis: VSTO-6G (5D, 7F)
    27 basis functions,   168 primitive gaussians,    28 cartesian basis functions
    14 alpha electrons       14 beta electrons
       nuclear repulsion energy        91.4378084024 Hartrees.
 Integral buffers will be    262144 words long.
 Regular integral format.
 Two-electron integral symmetry is turned off.
 Do NDO integrals.
 One-electron integrals computed using PRISM.
 NBasis=    27 RedAO= F EigKep=  0.00D+00  NBF=    27
 NBsUse=    27 1.00D-04 EigRej=  0.00D+00 NBFU=    27
 Initial guess from the checkpoint file:  "C:\G09W\gxx.chk"
 B after Tr=    -0.000343   -0.000093   -0.000024
         Rot=    1.000000    0.000057   -0.000004    0.000042 Ang=   0.01 deg.
 Overlap will be assumed to be unity.
 Keep J ints in memory in canonical form, NReq=1874650.
 Requested convergence on RMS density matrix=1.00D-08 within 128 cycles.
 Requested convergence on MAX density matrix=1.00D-06.
 Requested convergence on             energy=1.00D-06.
 No special actions if energy rises.
 SCF Done:  E(RPM6) = -0.108679205671     A.U. after   11 cycles
            NFock= 10  Conv=0.97D-08     -V/T= 0.9919
 Range of M.O.s used for correlation:     1    27
 NBasis=    27 NAE=    14 NBE=    14 NFC=     0 NFV=     0
 NROrb=     27 NOA=    14 NOB=    14 NVA=    13 NVB=    13
 Symmetrizing basis deriv contribution to polar:
 IMax=3 JMax=2 DiffMx= 0.00D+00
 Calling FoFJK, ICntrl=      2147 FMM=F ISym2X=0 I1Cent= 0 IOpClX= 0 NMat=1 NMatS=1 NMatT=0.
 -------------------------------------------------------------------
 Center     Atomic                   Forces (Hartrees/Bohr)
 Number     Number              X              Y              Z
 -------------------------------------------------------------------
      1        6          -0.000526864   -0.001251473   -0.000127985
      2        1          -0.000438855   -0.000001844    0.000018732
      3        1          -0.000349069   -0.000002794   -0.000004962
      4        1          -0.000178014   -0.000999499   -0.000044141
      5        6           0.003101126    0.000876520    0.000101346
      6        1           0.000105094    0.000004476    0.000047481
      7        1           0.000129462    0.000033308   -0.000010887
      8       35           0.001430002   -0.000005446   -0.000022390
      9        8          -0.002839400    0.000803391    0.000134286
     10        1          -0.000433481    0.000543362   -0.000091480
 -------------------------------------------------------------------
 Cartesian Forces:  Max     0.003101126 RMS     0.000910990
 IRC-IRC-IRC-IRC-IRC-IRC-IRC-IRC-IRC-IRC-IRC-IRC-IRC-IRC-IRC-IRC-IRC-IRC
 Pt  4 Step number   1 out of a maximum of  20
 Point Number:   4          Path Number:   1
   CHANGE IN THE REACTION COORDINATE =    0.05879
   NET REACTION COORDINATE UP TO THIS POINT =    0.23514
  # OF POINTS ALONG THE PATH =   4
  # OF STEPS =   1

 Calculating another point on the path.
 IRC-IRC-IRC-IRC-IRC-IRC-IRC-IRC-IRC-IRC-IRC-IRC-IRC-IRC-IRC-IRC-IRC-IRC
                          Input orientation:                          
 ---------------------------------------------------------------------
 Center     Atomic      Atomic             Coordinates (Angstroms)
 Number     Number       Type             X           Y           Z
 ---------------------------------------------------------------------
      1          6           0        1.504569   -1.215260    0.015857
      2          1           0        1.265160   -1.808907   -0.861350
      3          1           0        1.285450   -1.775563    0.918613
      4          1           0        2.668233   -0.987177   -0.014200
      5          6           0        1.009710    0.173586   -0.008263
      6          1           0        1.147768    0.768383    0.896192
      7          1           0        1.151950    0.732872   -0.937714
      8         35           0       -1.186850    0.071021    0.006671
      9          8           0        3.259306    0.566484   -0.074854
     10          1           0        3.753799    0.921571    0.573695
 ---------------------------------------------------------------------
                    Distance matrix (angstroms):
                    1          2          3          4          5
     1  C    0.000000
     2  H    1.085922   0.000000
     3  H    1.084860   1.780391   0.000000
     4  H    1.186187   1.833445   1.844934   0.000000
     5  C    1.474572   2.173314   2.175848   2.024379   0.000000
     6  H    2.199349   3.121724   2.547767   2.494518   1.091276
     7  H    2.197465   2.545445   3.123462   2.471955   1.094034
     8  Br   2.983009   3.209353   3.217728   3.997735   2.199004
     9  O    2.502387   3.199637   3.219980   1.663403   2.284620
    10  H    3.152184   3.963356   3.672363   2.273190   2.903133
                    6          7          8          9         10
     6  H    0.000000
     7  H    1.834255   0.000000
     8  Br   2.593839   2.607661   0.000000
     9  O    2.332871   2.283234   4.474420   0.000000
    10  H    2.630375   3.014893   5.045291   0.889509   0.000000
 Symmetry turned off by external request.
 Stoichiometry    C2H6BrO(1-)
 Framework group  C1[X(C2H6BrO)]
 Deg. of freedom    24
 Full point group                 C1      NOp   1
 Rotational constants (GHZ):     13.7443229      1.4376976      1.3268615
 Standard basis: VSTO-6G (5D, 7F)
    27 basis functions,   168 primitive gaussians,    28 cartesian basis functions
    14 alpha electrons       14 beta electrons
       nuclear repulsion energy        91.4383550273 Hartrees.
 Integral buffers will be    262144 words long.
 Regular integral format.
 Two-electron integral symmetry is turned off.
 Do NDO integrals.
 One-electron integrals computed using PRISM.
 NBasis=    27 RedAO= F EigKep=  0.00D+00  NBF=    27
 NBsUse=    27 1.00D-04 EigRej=  0.00D+00 NBFU=    27
 Initial guess from the checkpoint file:  "C:\G09W\gxx.chk"
 B after Tr=    -0.000339   -0.000086   -0.000020
         Rot=    1.000000    0.000052   -0.000002    0.000038 Ang=   0.01 deg.
 Overlap will be assumed to be unity.
 Keep J ints in memory in canonical form, NReq=1874650.
 Requested convergence on RMS density matrix=1.00D-08 within 128 cycles.
 Requested convergence on MAX density matrix=1.00D-06.
 Requested convergence on             energy=1.00D-06.
 No special actions if energy rises.
 SCF Done:  E(RPM6) = -0.108799428538     A.U. after   11 cycles
            NFock= 10  Conv=0.95D-08     -V/T= 0.9919
 Range of M.O.s used for correlation:     1    27
 NBasis=    27 NAE=    14 NBE=    14 NFC=     0 NFV=     0
 NROrb=     27 NOA=    14 NOB=    14 NVA=    13 NVB=    13
 Symmetrizing basis deriv contribution to polar:
 IMax=3 JMax=2 DiffMx= 0.00D+00
 Calling FoFJK, ICntrl=      2147 FMM=F ISym2X=0 I1Cent= 0 IOpClX= 0 NMat=1 NMatS=1 NMatT=0.
 -------------------------------------------------------------------
 Center     Atomic                   Forces (Hartrees/Bohr)
 Number     Number              X              Y              Z
 -------------------------------------------------------------------
      1        6          -0.000606612   -0.001460044   -0.000146340
      2        1          -0.000510983   -0.000000769    0.000019440
      3        1          -0.000406597   -0.000002942   -0.000004645
      4        1          -0.000215253   -0.001147863   -0.000051160
      5        6           0.003925124    0.001031319    0.000122706
      6        1           0.000120766    0.000003841    0.000059384
      7        1           0.000150828    0.000038585   -0.000015219
      8       35           0.001630445    0.000014813   -0.000025005
      9        8          -0.003540198    0.000888237    0.000127894
     10        1          -0.000547520    0.000634822   -0.000087056
 -------------------------------------------------------------------
 Cartesian Forces:  Max     0.003925124 RMS     0.001118783
 IRC-IRC-IRC-IRC-IRC-IRC-IRC-IRC-IRC-IRC-IRC-IRC-IRC-IRC-IRC-IRC-IRC-IRC
 Pt  5 Step number   1 out of a maximum of  20
 Point Number:   5          Path Number:   1
   CHANGE IN THE REACTION COORDINATE =    0.05879
   NET REACTION COORDINATE UP TO THIS POINT =    0.29393
  # OF POINTS ALONG THE PATH =   5
  # OF STEPS =   1

 Calculating another point on the path.
 IRC-IRC-IRC-IRC-IRC-IRC-IRC-IRC-IRC-IRC-IRC-IRC-IRC-IRC-IRC-IRC-IRC-IRC
                          Input orientation:                          
 ---------------------------------------------------------------------
 Center     Atomic      Atomic             Coordinates (Angstroms)
 Number     Number       Type             X           Y           Z
 ---------------------------------------------------------------------
      1          6           0        1.503920   -1.216917    0.015695
      2          1           0        1.258155   -1.809088   -0.861291
      3          1           0        1.279883   -1.775725    0.918689
      4          1           0        2.665048   -1.002908   -0.014901
      5          6           0        1.014315    0.174787   -0.008122
      6          1           0        1.149485    0.768472    0.897071
      7          1           0        1.154083    0.733434   -0.937969
      8         35           0       -1.186569    0.071025    0.006666
      9          8           0        3.256178    0.567224   -0.074764
     10          1           0        3.746232    0.930354    0.572780
 ---------------------------------------------------------------------
                    Distance matrix (angstroms):
                    1          2          3          4          5
     1  C    0.000000
     2  H    1.086357   0.000000
     3  H    1.085291   1.780425   0.000000
     4  H    1.181082   1.829112   1.840521   0.000000
     5  C    1.475506   2.173273   2.175776   2.027790   0.000000
     6  H    2.200958   3.122092   2.547628   2.503280   1.090920
     7  H    2.199029   2.545806   3.123921   2.479910   1.093726
     8  Br   2.982885   3.203881   3.213356   3.998594   2.203378
     9  O    2.502348   3.202745   3.222126   1.678789   2.276927
    10  H    3.154216   3.968833   3.677689   2.291688   2.893389
                    6          7          8          9         10
     6  H    0.000000
     7  H    1.835380   0.000000
     8  Br   2.595457   2.609555   0.000000
     9  O    2.328759   2.278497   4.471112   0.000000
    10  H    2.621921   3.006722   5.038994   0.889567   0.000000
 Symmetry turned off by external request.
 Stoichiometry    C2H6BrO(1-)
 Framework group  C1[X(C2H6BrO)]
 Deg. of freedom    24
 Full point group                 C1      NOp   1
 Rotational constants (GHZ):     13.7005359      1.4392807      1.3278064
 Standard basis: VSTO-6G (5D, 7F)
    27 basis functions,   168 primitive gaussians,    28 cartesian basis functions
    14 alpha electrons       14 beta electrons
       nuclear repulsion energy        91.4405326844 Hartrees.
 Integral buffers will be    262144 words long.
 Regular integral format.
 Two-electron integral symmetry is turned off.
 Do NDO integrals.
 One-electron integrals computed using PRISM.
 NBasis=    27 RedAO= F EigKep=  0.00D+00  NBF=    27
 NBsUse=    27 1.00D-04 EigRej=  0.00D+00 NBFU=    27
 Initial guess from the checkpoint file:  "C:\G09W\gxx.chk"
 B after Tr=    -0.000335   -0.000080   -0.000016
         Rot=    1.000000    0.000048   -0.000001    0.000035 Ang=   0.01 deg.
 Overlap will be assumed to be unity.
 Keep J ints in memory in canonical form, NReq=1874650.
 Requested convergence on RMS density matrix=1.00D-08 within 128 cycles.
 Requested convergence on MAX density matrix=1.00D-06.
 Requested convergence on             energy=1.00D-06.
 No special actions if energy rises.
 SCF Done:  E(RPM6) = -0.108941238281     A.U. after   11 cycles
            NFock= 10  Conv=0.86D-08     -V/T= 0.9919
 Range of M.O.s used for correlation:     1    27
 NBasis=    27 NAE=    14 NBE=    14 NFC=     0 NFV=     0
 NROrb=     27 NOA=    14 NOB=    14 NVA=    13 NVB=    13
 Symmetrizing basis deriv contribution to polar:
 IMax=3 JMax=2 DiffMx= 0.00D+00
 Calling FoFJK, ICntrl=      2147 FMM=F ISym2X=0 I1Cent= 0 IOpClX= 0 NMat=1 NMatS=1 NMatT=0.
 -------------------------------------------------------------------
 Center     Atomic                   Forces (Hartrees/Bohr)
 Number     Number              X              Y              Z
 -------------------------------------------------------------------
      1        6          -0.000675857   -0.001644650   -0.000161457
      2        1          -0.000575205    0.000001885    0.000019965
      3        1          -0.000457639   -0.000001827   -0.000004175
      4        1          -0.000238212   -0.001276578   -0.000057812
      5        6           0.004771507    0.001177636    0.000142732
      6        1           0.000133006    0.000003031    0.000071223
      7        1           0.000168666    0.000043289   -0.000019964
      8       35           0.001778438    0.000038588   -0.000026839
      9        8          -0.004241315    0.000943460    0.000112552
     10        1          -0.000663390    0.000715167   -0.000076226
 -------------------------------------------------------------------
 Cartesian Forces:  Max     0.004771507 RMS     0.001324891
 IRC-IRC-IRC-IRC-IRC-IRC-IRC-IRC-IRC-IRC-IRC-IRC-IRC-IRC-IRC-IRC-IRC-IRC
 Pt  6 Step number   1 out of a maximum of  20
 Point Number:   6          Path Number:   1
   CHANGE IN THE REACTION COORDINATE =    0.05879
   NET REACTION COORDINATE UP TO THIS POINT =    0.35272
  # OF POINTS ALONG THE PATH =   6
  # OF STEPS =   1

 Calculating another point on the path.
 IRC-IRC-IRC-IRC-IRC-IRC-IRC-IRC-IRC-IRC-IRC-IRC-IRC-IRC-IRC-IRC-IRC-IRC
                          Input orientation:                          
 ---------------------------------------------------------------------
 Center     Atomic      Atomic             Coordinates (Angstroms)
 Number     Number       Type             X           Y           Z
 ---------------------------------------------------------------------
      1          6           0        1.503288   -1.218526    0.015541
      2          1           0        1.251368   -1.809195   -0.861219
      3          1           0        1.274489   -1.775838    0.918751
      4          1           0        2.662142   -1.017957   -0.015587
      5          6           0        1.019136    0.175967   -0.007981
      6          1           0        1.151102    0.768543    0.897974
      7          1           0        1.156126    0.733976   -0.938252
      8         35           0       -1.186306    0.071032    0.006662
      9          8           0        3.252957    0.567899   -0.074698
     10          1           0        3.738322    0.938854    0.572129
 ---------------------------------------------------------------------
                    Distance matrix (angstroms):
                    1          2          3          4          5
     1  C    0.000000
     2  H    1.086766   0.000000
     3  H    1.085696   1.780433   0.000000
     4  H    1.176495   1.825222   1.836560   0.000000
     5  C    1.476336   2.173204   2.175680   2.031005   0.000000
     6  H    2.202537   3.122427   2.547456   2.511855   1.090557
     7  H    2.200570   2.546120   3.124362   2.487703   1.093410
     8  Br   2.982776   3.198551   3.209105   3.999618   2.207985
     9  O    2.502160   3.205550   3.224032   1.693368   2.268925
    10  H    3.155861   3.973814   3.682414   2.309260   2.883141
                    6          7          8          9         10
     6  H    0.000000
     7  H    1.836558   0.000000
     8  Br   2.597005   2.611387   0.000000
     9  O    2.324682   2.273766   4.467724   0.000000
    10  H    2.613215   2.998494   5.032378   0.889704   0.000000
 Symmetry turned off by external request.
 Stoichiometry    C2H6BrO(1-)
 Framework group  C1[X(C2H6BrO)]
 Deg. of freedom    24
 Full point group                 C1      NOp   1
 Rotational constants (GHZ):     13.6584331      1.4408643      1.3287662
 Standard basis: VSTO-6G (5D, 7F)
    27 basis functions,   168 primitive gaussians,    28 cartesian basis functions
    14 alpha electrons       14 beta electrons
       nuclear repulsion energy        91.4441804176 Hartrees.
 Integral buffers will be    262144 words long.
 Regular integral format.
 Two-electron integral symmetry is turned off.
 Do NDO integrals.
 One-electron integrals computed using PRISM.
 NBasis=    27 RedAO= F EigKep=  0.00D+00  NBF=    27
 NBsUse=    27 1.00D-04 EigRej=  0.00D+00 NBFU=    27
 Initial guess from the checkpoint file:  "C:\G09W\gxx.chk"
 B after Tr=    -0.000331   -0.000074   -0.000013
         Rot=    1.000000    0.000043    0.000001    0.000032 Ang=   0.01 deg.
 Overlap will be assumed to be unity.
 Keep J ints in memory in canonical form, NReq=1874650.
 Requested convergence on RMS density matrix=1.00D-08 within 128 cycles.
 Requested convergence on MAX density matrix=1.00D-06.
 Requested convergence on             energy=1.00D-06.
 No special actions if energy rises.
 SCF Done:  E(RPM6) = -0.109104020188     A.U. after   11 cycles
            NFock= 10  Conv=0.80D-08     -V/T= 0.9919
 Range of M.O.s used for correlation:     1    27
 NBasis=    27 NAE=    14 NBE=    14 NFC=     0 NFV=     0
 NROrb=     27 NOA=    14 NOB=    14 NVA=    13 NVB=    13
 Symmetrizing basis deriv contribution to polar:
 IMax=3 JMax=2 DiffMx= 0.00D+00
 Calling FoFJK, ICntrl=      2147 FMM=F ISym2X=0 I1Cent= 0 IOpClX= 0 NMat=1 NMatS=1 NMatT=0.
 -------------------------------------------------------------------
 Center     Atomic                   Forces (Hartrees/Bohr)
 Number     Number              X              Y              Z
 -------------------------------------------------------------------
      1        6          -0.000727530   -0.001808780   -0.000174082
      2        1          -0.000632527    0.000006369    0.000020829
      3        1          -0.000503080    0.000000743   -0.000003967
      4        1          -0.000256868   -0.001390814   -0.000063936
      5        6           0.005642166    0.001319563    0.000161365
      6        1           0.000142199    0.000002201    0.000082965
      7        1           0.000183298    0.000047579   -0.000025167
      8       35           0.001877268    0.000064577   -0.000027883
      9        8          -0.004943722    0.000973061    0.000090578
     10        1          -0.000781205    0.000785500   -0.000060702
 -------------------------------------------------------------------
 Cartesian Forces:  Max     0.005642166 RMS     0.001530902
 IRC-IRC-IRC-IRC-IRC-IRC-IRC-IRC-IRC-IRC-IRC-IRC-IRC-IRC-IRC-IRC-IRC-IRC
 Pt  7 Step number   1 out of a maximum of  20
 Point Number:   7          Path Number:   1
   CHANGE IN THE REACTION COORDINATE =    0.05879
   NET REACTION COORDINATE UP TO THIS POINT =    0.41151
  # OF POINTS ALONG THE PATH =   7
  # OF STEPS =   1

 Calculating another point on the path.
 IRC-IRC-IRC-IRC-IRC-IRC-IRC-IRC-IRC-IRC-IRC-IRC-IRC-IRC-IRC-IRC-IRC-IRC
                          Input orientation:                          
 ---------------------------------------------------------------------
 Center     Atomic      Atomic             Coordinates (Angstroms)
 Number     Number       Type             X           Y           Z
 ---------------------------------------------------------------------
      1          6           0        1.502684   -1.220087    0.015394
      2          1           0        1.244802   -1.809229   -0.861137
      3          1           0        1.269272   -1.775902    0.918803
      4          1           0        2.659470   -1.032383   -0.016257
      5          6           0        1.024149    0.177130   -0.007840
      6          1           0        1.152615    0.768602    0.898896
      7          1           0        1.158071    0.734501   -0.938560
      8         35           0       -1.186063    0.071042    0.006659
      9          8           0        3.249660    0.568510   -0.074655
     10          1           0        3.730118    0.947052    0.571722
 ---------------------------------------------------------------------
                    Distance matrix (angstroms):
                    1          2          3          4          5
     1  C    0.000000
     2  H    1.087151   0.000000
     3  H    1.086075   1.780420   0.000000
     4  H    1.172344   1.821702   1.832978   0.000000
     5  C    1.477075   2.173115   2.175566   2.034028   0.000000
     6  H    2.204089   3.122728   2.547254   2.520250   1.090189
     7  H    2.202090   2.546386   3.124785   2.495340   1.093086
     8  Br   2.982692   3.193368   3.204977   4.000775   2.212804
     9  O    2.501822   3.208061   3.225704   1.707218   2.260651
    10  H    3.157128   3.978312   3.686557   2.325977   2.872444
                    6          7          8          9         10
     6  H    0.000000
     7  H    1.837781   0.000000
     8  Br   2.598479   2.613155   0.000000
     9  O    2.320654   2.269060   4.464272   0.000000
    10  H    2.604305   2.990244   5.025487   0.889909   0.000000
 Symmetry turned off by external request.
 Stoichiometry    C2H6BrO(1-)
 Framework group  C1[X(C2H6BrO)]
 Deg. of freedom    24
 Full point group                 C1      NOp   1
 Rotational constants (GHZ):     13.6180134      1.4424407      1.3297346
 Standard basis: VSTO-6G (5D, 7F)
    27 basis functions,   168 primitive gaussians,    28 cartesian basis functions
    14 alpha electrons       14 beta electrons
       nuclear repulsion energy        91.4491839593 Hartrees.
 Integral buffers will be    262144 words long.
 Regular integral format.
 Two-electron integral symmetry is turned off.
 Do NDO integrals.
 One-electron integrals computed using PRISM.
 NBasis=    27 RedAO= F EigKep=  0.00D+00  NBF=    27
 NBsUse=    27 1.00D-04 EigRej=  0.00D+00 NBFU=    27
 Initial guess from the checkpoint file:  "C:\G09W\gxx.chk"
 B after Tr=    -0.000326   -0.000070   -0.000010
         Rot=    1.000000    0.000039    0.000002    0.000030 Ang=   0.01 deg.
 Overlap will be assumed to be unity.
 Keep J ints in memory in canonical form, NReq=1874650.
 Requested convergence on RMS density matrix=1.00D-08 within 128 cycles.
 Requested convergence on MAX density matrix=1.00D-06.
 Requested convergence on             energy=1.00D-06.
 No special actions if energy rises.
 SCF Done:  E(RPM6) = -0.109287482463     A.U. after   11 cycles
            NFock= 10  Conv=0.79D-08     -V/T= 0.9919
 Range of M.O.s used for correlation:     1    27
 NBasis=    27 NAE=    14 NBE=    14 NFC=     0 NFV=     0
 NROrb=     27 NOA=    14 NOB=    14 NVA=    13 NVB=    13
 Symmetrizing basis deriv contribution to polar:
 IMax=3 JMax=2 DiffMx= 0.00D+00
 Calling FoFJK, ICntrl=      2147 FMM=F ISym2X=0 I1Cent= 0 IOpClX= 0 NMat=1 NMatS=1 NMatT=0.
 -------------------------------------------------------------------
 Center     Atomic                   Forces (Hartrees/Bohr)
 Number     Number              X              Y              Z
 -------------------------------------------------------------------
      1        6          -0.000764195   -0.001955942   -0.000184449
      2        1          -0.000684695    0.000012350    0.000021750
      3        1          -0.000544440    0.000004536   -0.000003805
      4        1          -0.000269227   -0.001495155   -0.000069682
      5        6           0.006538444    0.001460924    0.000178531
      6        1           0.000148720    0.000001482    0.000094608
      7        1           0.000195061    0.000051584   -0.000030828
      8       35           0.001930176    0.000091580   -0.000028133
      9        8          -0.005649336    0.000981187    0.000063051
     10        1          -0.000900508    0.000847453   -0.000041045
 -------------------------------------------------------------------
 Cartesian Forces:  Max     0.006538444 RMS     0.001738388
 IRC-IRC-IRC-IRC-IRC-IRC-IRC-IRC-IRC-IRC-IRC-IRC-IRC-IRC-IRC-IRC-IRC-IRC
 Pt  8 Step number   1 out of a maximum of  20
 Point Number:   8          Path Number:   1
   CHANGE IN THE REACTION COORDINATE =    0.05879
   NET REACTION COORDINATE UP TO THIS POINT =    0.47031
  # OF POINTS ALONG THE PATH =   8
  # OF STEPS =   1

 Calculating another point on the path.
 IRC-IRC-IRC-IRC-IRC-IRC-IRC-IRC-IRC-IRC-IRC-IRC-IRC-IRC-IRC-IRC-IRC-IRC
                          Input orientation:                          
 ---------------------------------------------------------------------
 Center     Atomic      Atomic             Coordinates (Angstroms)
 Number     Number       Type             X           Y           Z
 ---------------------------------------------------------------------
      1          6           0        1.502115   -1.221596    0.015255
      2          1           0        1.238454   -1.809192   -0.861045
      3          1           0        1.264227   -1.775914    0.918844
      4          1           0        2.657010   -1.046240   -0.016910
      5          6           0        1.029338    0.178282   -0.007701
      6          1           0        1.154024    0.768651    0.899834
      7          1           0        1.159913    0.735009   -0.938894
      8         35           0       -1.185841    0.071054    0.006656
      9          8           0        3.246299    0.569060   -0.074633
     10          1           0        3.721662    0.954942    0.571541
 ---------------------------------------------------------------------
                    Distance matrix (angstroms):
                    1          2          3          4          5
     1  C    0.000000
     2  H    1.087515   0.000000
     3  H    1.086431   1.780387   0.000000
     4  H    1.168575   1.818505   1.829728   0.000000
     5  C    1.477735   2.173011   2.175440   2.036874   0.000000
     6  H    2.205613   3.122995   2.547022   2.528482   1.089818
     7  H    2.203589   2.546603   3.125189   2.502839   1.092756
     8  Br   2.982637   3.188328   3.200971   4.002051   2.217819
     9  O    2.501340   3.210291   3.227152   1.720403   2.252133
    10  H    3.158031   3.982344   3.690146   2.341899   2.861352
                    6          7          8          9         10
     6  H    0.000000
     7  H    1.839045   0.000000
     8  Br   2.599880   2.614855   0.000000
     9  O    2.316687   2.264396   4.460771   0.000000
    10  H    2.595236   2.982003   5.018361   0.890178   0.000000
 Symmetry turned off by external request.
 Stoichiometry    C2H6BrO(1-)
 Framework group  C1[X(C2H6BrO)]
 Deg. of freedom    24
 Full point group                 C1      NOp   1
 Rotational constants (GHZ):     13.5792579      1.4440033      1.3307057
 Standard basis: VSTO-6G (5D, 7F)
    27 basis functions,   168 primitive gaussians,    28 cartesian basis functions
    14 alpha electrons       14 beta electrons
       nuclear repulsion energy        91.4554099794 Hartrees.
 Integral buffers will be    262144 words long.
 Regular integral format.
 Two-electron integral symmetry is turned off.
 Do NDO integrals.
 One-electron integrals computed using PRISM.
 NBasis=    27 RedAO= F EigKep=  0.00D+00  NBF=    27
 NBsUse=    27 1.00D-04 EigRej=  0.00D+00 NBFU=    27
 Initial guess from the checkpoint file:  "C:\G09W\gxx.chk"
 B after Tr=    -0.000321   -0.000066   -0.000007
         Rot=    1.000000    0.000035    0.000004    0.000028 Ang=   0.01 deg.
 Overlap will be assumed to be unity.
 Keep J ints in memory in canonical form, NReq=1874650.
 Requested convergence on RMS density matrix=1.00D-08 within 128 cycles.
 Requested convergence on MAX density matrix=1.00D-06.
 Requested convergence on             energy=1.00D-06.
 No special actions if energy rises.
 SCF Done:  E(RPM6) = -0.109491578214     A.U. after   11 cycles
            NFock= 10  Conv=0.77D-08     -V/T= 0.9919
 Range of M.O.s used for correlation:     1    27
 NBasis=    27 NAE=    14 NBE=    14 NFC=     0 NFV=     0
 NROrb=     27 NOA=    14 NOB=    14 NVA=    13 NVB=    13
 Symmetrizing basis deriv contribution to polar:
 IMax=3 JMax=2 DiffMx= 0.00D+00
 Calling FoFJK, ICntrl=      2147 FMM=F ISym2X=0 I1Cent= 0 IOpClX= 0 NMat=1 NMatS=1 NMatT=0.
 -------------------------------------------------------------------
 Center     Atomic                   Forces (Hartrees/Bohr)
 Number     Number              X              Y              Z
 -------------------------------------------------------------------
      1        6          -0.000784059   -0.002088599   -0.000193012
      2        1          -0.000732636    0.000019881    0.000022908
      3        1          -0.000582507    0.000009607   -0.000003814
      4        1          -0.000279308   -0.001592482   -0.000075011
      5        6           0.007462678    0.001603943    0.000194183
      6        1           0.000152808    0.000000935    0.000106115
      7        1           0.000204145    0.000055381   -0.000036943
      8       35           0.001939670    0.000118716   -0.000027586
      9        8          -0.006359555    0.000970649    0.000031365
     10        1          -0.001021236    0.000901970   -0.000018204
 -------------------------------------------------------------------
 Cartesian Forces:  Max     0.007462678 RMS     0.001948629
 IRC-IRC-IRC-IRC-IRC-IRC-IRC-IRC-IRC-IRC-IRC-IRC-IRC-IRC-IRC-IRC-IRC-IRC
 Pt  9 Step number   1 out of a maximum of  20
 Point Number:   9          Path Number:   1
   CHANGE IN THE REACTION COORDINATE =    0.05879
   NET REACTION COORDINATE UP TO THIS POINT =    0.52910
  # OF POINTS ALONG THE PATH =   9
  # OF STEPS =   1

 Calculating another point on the path.
 IRC-IRC-IRC-IRC-IRC-IRC-IRC-IRC-IRC-IRC-IRC-IRC-IRC-IRC-IRC-IRC-IRC-IRC
                          Input orientation:                          
 ---------------------------------------------------------------------
 Center     Atomic      Atomic             Coordinates (Angstroms)
 Number     Number       Type             X           Y           Z
 ---------------------------------------------------------------------
      1          6           0        1.501588   -1.223052    0.015124
      2          1           0        1.232317   -1.809086   -0.860945
      3          1           0        1.259350   -1.775875    0.918878
      4          1           0        2.654733   -1.059580   -0.017546
      5          6           0        1.034686    0.179424   -0.007565
      6          1           0        1.155327    0.768695    0.900781
      7          1           0        1.161651    0.735502   -0.939252
      8         35           0       -1.185640    0.071067    0.006653
      9          8           0        3.242884    0.569549   -0.074630
     10          1           0        3.712998    0.962516    0.571568
 ---------------------------------------------------------------------
                    Distance matrix (angstroms):
                    1          2          3          4          5
     1  C    0.000000
     2  H    1.087860   0.000000
     3  H    1.086768   1.780337   0.000000
     4  H    1.165133   1.815585   1.826763   0.000000
     5  C    1.478327   2.172898   2.175308   2.039554   0.000000
     6  H    2.207112   3.123229   2.546760   2.536559   1.089444
     7  H    2.205068   2.546773   3.125573   2.510211   1.092421
     8  Br   2.982619   3.183429   3.197082   4.003426   2.223014
     9  O    2.500717   3.212254   3.228387   1.732986   2.243398
    10  H    3.158587   3.985931   3.693210   2.357085   2.849909
                    6          7          8          9         10
     6  H    0.000000
     7  H    1.840343   0.000000
     8  Br   2.601207   2.616483   0.000000
     9  O    2.312787   2.259789   4.457233   0.000000
    10  H    2.586045   2.973800   5.011035   0.890506   0.000000
 Symmetry turned off by external request.
 Stoichiometry    C2H6BrO(1-)
 Framework group  C1[X(C2H6BrO)]
 Deg. of freedom    24
 Full point group                 C1      NOp   1
 Rotational constants (GHZ):     13.5421281      1.4455465      1.3316748
 Standard basis: VSTO-6G (5D, 7F)
    27 basis functions,   168 primitive gaussians,    28 cartesian basis functions
    14 alpha electrons       14 beta electrons
       nuclear repulsion energy        91.4627511860 Hartrees.
 Integral buffers will be    262144 words long.
 Regular integral format.
 Two-electron integral symmetry is turned off.
 Do NDO integrals.
 One-electron integrals computed using PRISM.
 NBasis=    27 RedAO= F EigKep=  0.00D+00  NBF=    27
 NBsUse=    27 1.00D-04 EigRej=  0.00D+00 NBFU=    27
 Initial guess from the checkpoint file:  "C:\G09W\gxx.chk"
 B after Tr=    -0.000316   -0.000063   -0.000004
         Rot=    1.000000    0.000031    0.000005    0.000026 Ang=   0.00 deg.
 Overlap will be assumed to be unity.
 Keep J ints in memory in canonical form, NReq=1874650.
 Requested convergence on RMS density matrix=1.00D-08 within 128 cycles.
 Requested convergence on MAX density matrix=1.00D-06.
 Requested convergence on             energy=1.00D-06.
 No special actions if energy rises.
 SCF Done:  E(RPM6) = -0.109716445859     A.U. after   11 cycles
            NFock= 10  Conv=0.75D-08     -V/T= 0.9918
 Range of M.O.s used for correlation:     1    27
 NBasis=    27 NAE=    14 NBE=    14 NFC=     0 NFV=     0
 NROrb=     27 NOA=    14 NOB=    14 NVA=    13 NVB=    13
 Symmetrizing basis deriv contribution to polar:
 IMax=3 JMax=2 DiffMx= 0.00D+00
 Calling FoFJK, ICntrl=      2147 FMM=F ISym2X=0 I1Cent= 0 IOpClX= 0 NMat=1 NMatS=1 NMatT=0.
 -------------------------------------------------------------------
 Center     Atomic                   Forces (Hartrees/Bohr)
 Number     Number              X              Y              Z
 -------------------------------------------------------------------
      1        6          -0.000789070   -0.002208982   -0.000199992
      2        1          -0.000777389    0.000028816    0.000024198
      3        1          -0.000618168    0.000015868   -0.000003911
      4        1          -0.000286459   -0.001685153   -0.000079994
      5        6           0.008416799    0.001750549    0.000208265
      6        1           0.000154669    0.000000599    0.000117461
      7        1           0.000210712    0.000059013   -0.000043493
      8       35           0.001908033    0.000145245   -0.000026245
      9        8          -0.007076020    0.000943972   -0.000003664
     10        1          -0.001143107    0.000950073    0.000007375
 -------------------------------------------------------------------
 Cartesian Forces:  Max     0.008416799 RMS     0.002162786
 IRC-IRC-IRC-IRC-IRC-IRC-IRC-IRC-IRC-IRC-IRC-IRC-IRC-IRC-IRC-IRC-IRC-IRC
 Pt 10 Step number   1 out of a maximum of  20
 Point Number:  10          Path Number:   1
   CHANGE IN THE REACTION COORDINATE =    0.05879
   NET REACTION COORDINATE UP TO THIS POINT =    0.58789
  # OF POINTS ALONG THE PATH =  10
  # OF STEPS =   1

 Calculating another point on the path.
 IRC-IRC-IRC-IRC-IRC-IRC-IRC-IRC-IRC-IRC-IRC-IRC-IRC-IRC-IRC-IRC-IRC-IRC
                          Input orientation:                          
 ---------------------------------------------------------------------
 Center     Atomic      Atomic             Coordinates (Angstroms)
 Number     Number       Type             X           Y           Z
 ---------------------------------------------------------------------
      1          6           0        1.501105   -1.224456    0.014999
      2          1           0        1.226385   -1.808912   -0.860837
      3          1           0        1.254634   -1.775786    0.918903
      4          1           0        2.652620   -1.072446   -0.018164
      5          6           0        1.040179    0.180559   -0.007433
      6          1           0        1.156524    0.768735    0.901735
      7          1           0        1.163280    0.735982   -0.939632
      8         35           0       -1.185462    0.071082    0.006650
      9          8           0        3.239427    0.569981   -0.074644
     10          1           0        3.704162    0.969774    0.571785
 ---------------------------------------------------------------------
                    Distance matrix (angstroms):
                    1          2          3          4          5
     1  C    0.000000
     2  H    1.088187   0.000000
     3  H    1.087086   1.780273   0.000000
     4  H    1.161978   1.812906   1.824047   0.000000
     5  C    1.478859   2.172779   2.175173   2.042083   0.000000
     6  H    2.208584   3.123428   2.546470   2.544496   1.089069
     7  H    2.206527   2.546895   3.125936   2.517469   1.092082
     8  Br   2.982638   3.178666   3.193305   4.004890   2.228376
     9  O    2.499960   3.213965   3.229421   1.745021   2.234471
    10  H    3.158815   3.989096   3.695779   2.371591   2.838161
                    6          7          8          9         10
     6  H    0.000000
     7  H    1.841671   0.000000
     8  Br   2.602459   2.618039   0.000000
     9  O    2.308961   2.255249   4.453667   0.000000
    10  H    2.576770   2.965658   5.003544   0.890889   0.000000
 Symmetry turned off by external request.
 Stoichiometry    C2H6BrO(1-)
 Framework group  C1[X(C2H6BrO)]
 Deg. of freedom    24
 Full point group                 C1      NOp   1
 Rotational constants (GHZ):     13.5065775      1.4470662      1.3326379
 Standard basis: VSTO-6G (5D, 7F)
    27 basis functions,   168 primitive gaussians,    28 cartesian basis functions
    14 alpha electrons       14 beta electrons
       nuclear repulsion energy        91.4710997727 Hartrees.
 Integral buffers will be    262144 words long.
 Regular integral format.
 Two-electron integral symmetry is turned off.
 Do NDO integrals.
 One-electron integrals computed using PRISM.
 NBasis=    27 RedAO= F EigKep=  0.00D+00  NBF=    27
 NBsUse=    27 1.00D-04 EigRej=  0.00D+00 NBFU=    27
 Initial guess from the checkpoint file:  "C:\G09W\gxx.chk"
 B after Tr=    -0.000311   -0.000060   -0.000002
         Rot=    1.000000    0.000028    0.000006    0.000024 Ang=   0.00 deg.
 Overlap will be assumed to be unity.
 Keep J ints in memory in canonical form, NReq=1874650.
 Requested convergence on RMS density matrix=1.00D-08 within 128 cycles.
 Requested convergence on MAX density matrix=1.00D-06.
 Requested convergence on             energy=1.00D-06.
 No special actions if energy rises.
 SCF Done:  E(RPM6) = -0.109962364680     A.U. after   11 cycles
            NFock= 10  Conv=0.68D-08     -V/T= 0.9918
 Range of M.O.s used for correlation:     1    27
 NBasis=    27 NAE=    14 NBE=    14 NFC=     0 NFV=     0
 NROrb=     27 NOA=    14 NOB=    14 NVA=    13 NVB=    13
 Symmetrizing basis deriv contribution to polar:
 IMax=3 JMax=2 DiffMx= 0.00D+00
 Calling FoFJK, ICntrl=      2147 FMM=F ISym2X=0 I1Cent= 0 IOpClX= 0 NMat=1 NMatS=1 NMatT=0.
 -------------------------------------------------------------------
 Center     Atomic                   Forces (Hartrees/Bohr)
 Number     Number              X              Y              Z
 -------------------------------------------------------------------
      1        6          -0.000779191   -0.002318733   -0.000205676
      2        1          -0.000819592    0.000039160    0.000025691
      3        1          -0.000651961    0.000023338   -0.000004145
      4        1          -0.000292526   -0.001774685   -0.000084617
      5        6           0.009402845    0.001901876    0.000220732
      6        1           0.000154444    0.000000480    0.000128603
      7        1           0.000214857    0.000062498   -0.000050451
      8       35           0.001837146    0.000170620   -0.000024110
      9        8          -0.007800028    0.000903010   -0.000041145
     10        1          -0.001265994    0.000992436    0.000035118
 -------------------------------------------------------------------
 Cartesian Forces:  Max     0.009402845 RMS     0.002381815
 IRC-IRC-IRC-IRC-IRC-IRC-IRC-IRC-IRC-IRC-IRC-IRC-IRC-IRC-IRC-IRC-IRC-IRC
 Pt 11 Step number   1 out of a maximum of  20
 Point Number:  11          Path Number:   1
   CHANGE IN THE REACTION COORDINATE =    0.05879
   NET REACTION COORDINATE UP TO THIS POINT =    0.64669
  # OF POINTS ALONG THE PATH =  11
  # OF STEPS =   1

 Calculating another point on the path.
 IRC-IRC-IRC-IRC-IRC-IRC-IRC-IRC-IRC-IRC-IRC-IRC-IRC-IRC-IRC-IRC-IRC-IRC
                          Input orientation:                          
 ---------------------------------------------------------------------
 Center     Atomic      Atomic             Coordinates (Angstroms)
 Number     Number       Type             X           Y           Z
 ---------------------------------------------------------------------
      1          6           0        1.500670   -1.225808    0.014882
      2          1           0        1.220648   -1.808674   -0.860723
      3          1           0        1.250071   -1.775647    0.918922
      4          1           0        2.650650   -1.084879   -0.018763
      5          6           0        1.045804    0.181691   -0.007304
      6          1           0        1.157618    0.768774    0.902690
      7          1           0        1.164799    0.736447   -0.940034
      8         35           0       -1.185305    0.071098    0.006649
      9          8           0        3.235935    0.570358   -0.074673
     10          1           0        3.695189    0.976719    0.572175
 ---------------------------------------------------------------------
                    Distance matrix (angstroms):
                    1          2          3          4          5
     1  C    0.000000
     2  H    1.088498   0.000000
     3  H    1.087387   1.780195   0.000000
     4  H    1.159072   1.810436   1.821547   0.000000
     5  C    1.479341   2.172659   2.175039   2.044471   0.000000
     6  H    2.210032   3.123593   2.546152   2.552302   1.088695
     7  H    2.207967   2.546968   3.126277   2.524623   1.091741
     8  Br   2.982699   3.174033   3.189635   4.006430   2.233892
     9  O    2.499075   3.215439   3.230267   1.756557   2.225370
    10  H    3.158737   3.991862   3.697885   2.385468   2.826147
                    6          7          8          9         10
     6  H    0.000000
     7  H    1.843022   0.000000
     8  Br   2.603638   2.619520   0.000000
     9  O    2.305213   2.250787   4.450083   0.000000
    10  H    2.567440   2.957597   4.995918   0.891323   0.000000
 Symmetry turned off by external request.
 Stoichiometry    C2H6BrO(1-)
 Framework group  C1[X(C2H6BrO)]
 Deg. of freedom    24
 Full point group                 C1      NOp   1
 Rotational constants (GHZ):     13.4725518      1.4485587      1.3335915
 Standard basis: VSTO-6G (5D, 7F)
    27 basis functions,   168 primitive gaussians,    28 cartesian basis functions
    14 alpha electrons       14 beta electrons
       nuclear repulsion energy        91.4803659567 Hartrees.
 Integral buffers will be    262144 words long.
 Regular integral format.
 Two-electron integral symmetry is turned off.
 Do NDO integrals.
 One-electron integrals computed using PRISM.
 NBasis=    27 RedAO= F EigKep=  0.00D+00  NBF=    27
 NBsUse=    27 1.00D-04 EigRej=  0.00D+00 NBFU=    27
 Initial guess from the checkpoint file:  "C:\G09W\gxx.chk"
 B after Tr=    -0.000306   -0.000058    0.000001
         Rot=    1.000000    0.000025    0.000007    0.000023 Ang=   0.00 deg.
 Overlap will be assumed to be unity.
 Keep J ints in memory in canonical form, NReq=1874650.
 Requested convergence on RMS density matrix=1.00D-08 within 128 cycles.
 Requested convergence on MAX density matrix=1.00D-06.
 Requested convergence on             energy=1.00D-06.
 No special actions if energy rises.
 SCF Done:  E(RPM6) = -0.110229721020     A.U. after   11 cycles
            NFock= 10  Conv=0.63D-08     -V/T= 0.9918
 Range of M.O.s used for correlation:     1    27
 NBasis=    27 NAE=    14 NBE=    14 NFC=     0 NFV=     0
 NROrb=     27 NOA=    14 NOB=    14 NVA=    13 NVB=    13
 Symmetrizing basis deriv contribution to polar:
 IMax=3 JMax=2 DiffMx= 0.00D+00
 Calling FoFJK, ICntrl=      2147 FMM=F ISym2X=0 I1Cent= 0 IOpClX= 0 NMat=1 NMatS=1 NMatT=0.
 -------------------------------------------------------------------
 Center     Atomic                   Forces (Hartrees/Bohr)
 Number     Number              X              Y              Z
 -------------------------------------------------------------------
      1        6          -0.000755987   -0.002419272   -0.000210233
      2        1          -0.000859869    0.000050837    0.000027340
      3        1          -0.000684415    0.000031976   -0.000004478
      4        1          -0.000297252   -0.001862276   -0.000088910
      5        6           0.010422432    0.002058855    0.000231537
      6        1           0.000152253    0.000000569    0.000139496
      7        1           0.000216653    0.000065834   -0.000057783
      8       35           0.001728716    0.000194411   -0.000021188
      9        8          -0.008532867    0.000849352   -0.000080480
     10        1          -0.001389665    0.001029714    0.000064700
 -------------------------------------------------------------------
 Cartesian Forces:  Max     0.010422432 RMS     0.002606543
 IRC-IRC-IRC-IRC-IRC-IRC-IRC-IRC-IRC-IRC-IRC-IRC-IRC-IRC-IRC-IRC-IRC-IRC
 Pt 12 Step number   1 out of a maximum of  20
 Point Number:  12          Path Number:   1
   CHANGE IN THE REACTION COORDINATE =    0.05879
[...]
     6  H    0.000000
     7  H    1.821907   0.000000
     8  Br   2.576079   2.584105   0.000000
     9  O    2.540938   2.495203   4.712737   0.000000
    10  H    2.664923   3.171352   5.105708   0.939205   0.000000
 Symmetry turned off by external request.
 Stoichiometry    C2H6BrO(1-)
 Framework group  C1[X(C2H6BrO)]
 Deg. of freedom    24
 Full point group                 C1      NOp   1
 Rotational constants (GHZ):     13.8953704      1.3094580      1.2199556
 Standard basis: VSTO-6G (5D, 7F)
    27 basis functions,   168 primitive gaussians,    28 cartesian basis functions
    14 alpha electrons       14 beta electrons
       nuclear repulsion energy        90.6130067591 Hartrees.
 Integral buffers will be    262144 words long.
 Regular integral format.
 Two-electron integral symmetry is turned off.
 Do NDO integrals.
 One-electron integrals computed using PRISM.
 NBasis=    27 RedAO= F EigKep=  0.00D+00  NBF=    27
 NBsUse=    27 1.00D-04 EigRej=  0.00D+00 NBFU=    27
 Initial guess from the checkpoint file:  "C:\G09W\gxx.chk"
 B after Tr=     0.000255   -0.000106    0.000001
         Rot=    1.000000   -0.000041    0.000010   -0.000013 Ang=  -0.01 deg.
 Overlap will be assumed to be unity.
 Keep J ints in memory in canonical form, NReq=1874650.
 Requested convergence on RMS density matrix=1.00D-08 within 128 cycles.
 Requested convergence on MAX density matrix=1.00D-06.
 Requested convergence on             energy=1.00D-06.
 No special actions if energy rises.
 SCF Done:  E(RPM6) = -0.133153652088     A.U. after   11 cycles
            NFock= 10  Conv=0.37D-08     -V/T= 0.9902
 Range of M.O.s used for correlation:     1    27
 NBasis=    27 NAE=    14 NBE=    14 NFC=     0 NFV=     0
 NROrb=     27 NOA=    14 NOB=    14 NVA=    13 NVB=    13
 Symmetrizing basis deriv contribution to polar:
 IMax=3 JMax=2 DiffMx= 0.00D+00
 Calling FoFJK, ICntrl=      2147 FMM=F ISym2X=0 I1Cent= 0 IOpClX= 0 NMat=1 NMatS=1 NMatT=0.
 -------------------------------------------------------------------
 Center     Atomic                   Forces (Hartrees/Bohr)
 Number     Number              X              Y              Z
 -------------------------------------------------------------------
      1        6           0.002058825   -0.003551042    0.000539651
      2        1           0.000205262   -0.000349519    0.000070678
      3        1           0.000345625   -0.000257673    0.000074822
      4        1           0.000833997    0.000548682   -0.000935281
      5        6           0.005309862   -0.003732411    0.000150773
      6        1           0.000155995   -0.000308997   -0.000001529
      7        1           0.000117078   -0.000357329   -0.000005806
      8       35          -0.023558554    0.003210731    0.000289365
      9        8           0.015830545    0.004906703   -0.001018029
     10        1          -0.001298636   -0.000109145    0.000835357
 -------------------------------------------------------------------
 Cartesian Forces:  Max     0.023558554 RMS     0.005493311
 IRC-IRC-IRC-IRC-IRC-IRC-IRC-IRC-IRC-IRC-IRC-IRC-IRC-IRC-IRC-IRC-IRC-IRC
 Pt 99 Step number   1 out of a maximum of  20
 Point Number:  49          Path Number:   2
   CHANGE IN THE REACTION COORDINATE =    0.05880
   NET REACTION COORDINATE UP TO THIS POINT =    2.88072
  # OF POINTS ALONG THE PATH =  99
  # OF STEPS =   1

 Calculating another point on the path.
 IRC-IRC-IRC-IRC-IRC-IRC-IRC-IRC-IRC-IRC-IRC-IRC-IRC-IRC-IRC-IRC-IRC-IRC
                          Input orientation:                          
 ---------------------------------------------------------------------
 Center     Atomic      Atomic             Coordinates (Angstroms)
 Number     Number       Type             X           Y           Z
 ---------------------------------------------------------------------
      1          6           0        1.472681   -1.223342    0.026363
      2          1           0        1.502106   -1.829965   -0.854074
      3          1           0        1.504977   -1.787193    0.933244
      4          1           0        3.204365   -0.363952   -0.148942
      5          6           0        1.062303    0.078013   -0.007973
      6          1           0        1.101895    0.700661    0.885522
      7          1           0        1.098128    0.650981   -0.935735
      8         35           0       -1.240054    0.077070    0.007178
      9          8           0        3.449841    0.597468   -0.091037
     10          1           0        3.756573    0.749467    0.783791
 ---------------------------------------------------------------------
                    Distance matrix (angstroms):
                    1          2          3          4          5
     1  C    0.000000
     2  H    1.069591   0.000000
     3  H    1.068366   1.787832   0.000000
     4  H    1.941137   2.354589   2.466710   0.000000
     5  C    1.364959   2.133000   2.135613   2.191719   0.000000
     6  H    2.139491   3.096842   2.520748   2.573693   1.089767
     7  H    2.139861   2.514947   3.098920   2.466854   1.091017
     8  Br   3.008383   3.449344   3.445036   4.468974   2.302407
     9  O    2.690408   3.204423   3.243186   0.993952   2.444805
    10  H    3.111565   3.797195   3.395094   1.553907   2.887357
                    6          7          8          9         10
     6  H    0.000000
     7  H    1.821939   0.000000
     8  Br   2.577805   2.585644   0.000000
     9  O    2.545028   2.499387   4.719701   0.000000
    10  H    2.657074   3.167617   5.101130   0.939422   0.000000
 Symmetry turned off by external request.
 Stoichiometry    C2H6BrO(1-)
 Framework group  C1[X(C2H6BrO)]
 Deg. of freedom    24
 Full point group                 C1      NOp   1
 Rotational constants (GHZ):     13.8611203      1.3061371      1.2168652
 Standard basis: VSTO-6G (5D, 7F)
    27 basis functions,   168 primitive gaussians,    28 cartesian basis functions
    14 alpha electrons       14 beta electrons
       nuclear repulsion energy        90.5766231109 Hartrees.
 Integral buffers will be    262144 words long.
 Regular integral format.
 Two-electron integral symmetry is turned off.
 Do NDO integrals.
 One-electron integrals computed using PRISM.
 NBasis=    27 RedAO= F EigKep=  0.00D+00  NBF=    27
 NBsUse=    27 1.00D-04 EigRej=  0.00D+00 NBFU=    27
 Initial guess from the checkpoint file:  "C:\G09W\gxx.chk"
 B after Tr=     0.000248   -0.000106   -0.000001
         Rot=    1.000000   -0.000041    0.000009   -0.000014 Ang=  -0.01 deg.
 Overlap will be assumed to be unity.
 Keep J ints in memory in canonical form, NReq=1874650.
 Requested convergence on RMS density matrix=1.00D-08 within 128 cycles.
 Requested convergence on MAX density matrix=1.00D-06.
 Requested convergence on             energy=1.00D-06.
 No special actions if energy rises.
 SCF Done:  E(RPM6) = -0.133496193717     A.U. after   11 cycles
            NFock= 10  Conv=0.38D-08     -V/T= 0.9902
 Range of M.O.s used for correlation:     1    27
 NBasis=    27 NAE=    14 NBE=    14 NFC=     0 NFV=     0
 NROrb=     27 NOA=    14 NOB=    14 NVA=    13 NVB=    13
 Symmetrizing basis deriv contribution to polar:
 IMax=3 JMax=2 DiffMx= 0.00D+00
 Calling FoFJK, ICntrl=      2147 FMM=F ISym2X=0 I1Cent= 0 IOpClX= 0 NMat=1 NMatS=1 NMatT=0.
 -------------------------------------------------------------------
 Center     Atomic                   Forces (Hartrees/Bohr)
 Number     Number              X              Y              Z
 -------------------------------------------------------------------
      1        6           0.002093225   -0.003498893    0.000540822
      2        1           0.000209292   -0.000344142    0.000070310
      3        1           0.000347138   -0.000253794    0.000074329
      4        1           0.000818611    0.000545324   -0.000942697
      5        6           0.005207593   -0.003694462    0.000150343
      6        1           0.000150262   -0.000305227   -0.000001731
      7        1           0.000112122   -0.000353965   -0.000005837
      8       35          -0.023304160    0.003193485    0.000293854
      9        8           0.015713955    0.004828550   -0.000992383
     10        1          -0.001348039   -0.000116875    0.000812990
 -------------------------------------------------------------------
 Cartesian Forces:  Max     0.023304160 RMS     0.005438330
 IRC-IRC-IRC-IRC-IRC-IRC-IRC-IRC-IRC-IRC-IRC-IRC-IRC-IRC-IRC-IRC-IRC-IRC
 Pt100 Step number   1 out of a maximum of  20
 Point Number:  50          Path Number:   2
   CHANGE IN THE REACTION COORDINATE =    0.05880
   NET REACTION COORDINATE UP TO THIS POINT =    2.93952
  # OF POINTS ALONG THE PATH = 100
  # OF STEPS =   1

 Maximum number of steps reached.
 Calculation of REVERSE path complete.
 Reaction path calculation complete.
 
 Energies reported relative to the TS energy of          -0.108445
 --------------------------------------------------------------------------
    Summary of reaction path following
 --------------------------------------------------------------------------
                        Energy    RxCoord
   1                   -0.02505  -2.93952
   2                   -0.02471  -2.88072
   3                   -0.02436  -2.82193
   4                   -0.02402  -2.76313
   5                   -0.02367  -2.70434
   6                   -0.02331  -2.64554
   7                   -0.02296  -2.58674
   8                   -0.02260  -2.52795
   9                   -0.02223  -2.46915
  10                   -0.02187  -2.41036
  11                   -0.02150  -2.35156
  12                   -0.02112  -2.29276
  13                   -0.02075  -2.23397
  14                   -0.02036  -2.17517
  15                   -0.01998  -2.11638
  16                   -0.01959  -2.05758
  17                   -0.01919  -1.99879
  18                   -0.01879  -1.93999
  19                   -0.01838  -1.88120
  20                   -0.01797  -1.82240
  21                   -0.01754  -1.76361
  22                   -0.01711  -1.70482
  23                   -0.01666  -1.64603
  24                   -0.01621  -1.58724
  25                   -0.01573  -1.52845
  26                   -0.01523  -1.46967
  27                   -0.01471  -1.41089
  28                   -0.01415  -1.35211
  29                   -0.01355  -1.29333
  30                   -0.01290  -1.23456
  31                   -0.01219  -1.17578
  32                   -0.01140  -1.11700
  33                   -0.01054  -1.05822
  34                   -0.00961  -0.99943
  35                   -0.00863  -0.94064
  36                   -0.00762  -0.88184
  37                   -0.00661  -0.82305
  38                   -0.00562  -0.76426
  39                   -0.00468  -0.70546
  40                   -0.00381  -0.64667
  41                   -0.00303  -0.58787
  42                   -0.00234  -0.52908
  43                   -0.00176  -0.47029
  44                   -0.00127  -0.41150
  45                   -0.00088  -0.35271
  46                   -0.00057  -0.29392
  47                   -0.00034  -0.23513
  48                   -0.00018  -0.17635
  49                   -0.00008  -0.11758
  50                   -0.00002  -0.05881
  51                    0.00000   0.00000
  52                   -0.00002   0.05881
  53                   -0.00006   0.11757
  54                   -0.00014   0.17635
  55                   -0.00023   0.23514
  56                   -0.00035   0.29393
  57                   -0.00050   0.35272
  58                   -0.00066   0.41151
  59                   -0.00084   0.47031
  60                   -0.00105   0.52910
  61                   -0.00127   0.58789
  62                   -0.00152   0.64669
  63                   -0.00178   0.70548
  64                   -0.00207   0.76428
  65                   -0.00239   0.82307
  66                   -0.00272   0.88187
  67                   -0.00308   0.94066
  68                   -0.00346   0.99945
  69                   -0.00387   1.05825
  70                   -0.00430   1.11704
  71                   -0.00476   1.17584
  72                   -0.00525   1.23463
  73                   -0.00576   1.29343
  74                   -0.00630   1.35223
  75                   -0.00687   1.41102
  76                   -0.00747   1.46982
  77                   -0.00810   1.52861
  78                   -0.00875   1.58741
  79                   -0.00944   1.64620
  80                   -0.01016   1.70500
  81                   -0.01091   1.76379
  82                   -0.01169   1.82259
  83                   -0.01250   1.88138
  84                   -0.01334   1.94018
  85                   -0.01421   1.99898
  86                   -0.01512   2.05777
  87                   -0.01605   2.11657
  88                   -0.01702   2.17536
  89                   -0.01801   2.23416
  90                   -0.01904   2.29295
  91                   -0.02010   2.35175
  92                   -0.02118   2.41055
  93                   -0.02229   2.46934
  94                   -0.02343   2.52814
  95                   -0.02460   2.58693
  96                   -0.02579   2.64573
  97                   -0.02700   2.70453
  98                   -0.02824   2.76332
  99                   -0.02950   2.82212
 100                   -0.03078   2.88091
 101                   -0.03207   2.93971
 --------------------------------------------------------------------------
 
 Total number of points:                  100
 Total number of gradient calculations:   101
 Total number of Hessian calculations:      1
 IRC-IRC-IRC-IRC-IRC-IRC-IRC-IRC-IRC-IRC-IRC-IRC-IRC-IRC-IRC-IRC-IRC-IRC
                          Input orientation:                          
 ---------------------------------------------------------------------
 Center     Atomic      Atomic             Coordinates (Angstroms)
 Number     Number       Type             X           Y           Z
 ---------------------------------------------------------------------
      1          6           0        1.472681   -1.223342    0.026363
      2          1           0        1.502106   -1.829965   -0.854074
      3          1           0        1.504977   -1.787193    0.933244
      4          1           0        3.204365   -0.363952   -0.148942
      5          6           0        1.062303    0.078013   -0.007973
      6          1           0        1.101895    0.700661    0.885522
      7          1           0        1.098128    0.650981   -0.935735
      8         35           0       -1.240054    0.077070    0.007178
      9          8           0        3.449841    0.597468   -0.091037
     10          1           0        3.756573    0.749467    0.783791
 ---------------------------------------------------------------------
                    Distance matrix (angstroms):
                    1          2          3          4          5
     1  C    0.000000
     2  H    1.069591   0.000000
     3  H    1.068366   1.787832   0.000000
     4  H    1.941137   2.354589   2.466710   0.000000
     5  C    1.364959   2.133000   2.135613   2.191719   0.000000
     6  H    2.139491   3.096842   2.520748   2.573693   1.089767
     7  H    2.139861   2.514947   3.098920   2.466854   1.091017
     8  Br   3.008383   3.449344   3.445036   4.468974   2.302407
     9  O    2.690408   3.204423   3.243186   0.993952   2.444805
    10  H    3.111565   3.797195   3.395094   1.553907   2.887357
                    6          7          8          9         10
     6  H    0.000000
     7  H    1.821939   0.000000
     8  Br   2.577805   2.585644   0.000000
     9  O    2.545028   2.499387   4.719701   0.000000
    10  H    2.657074   3.167617   5.101130   0.939422   0.000000
 Symmetry turned off by external request.
 Stoichiometry    C2H6BrO(1-)
 Framework group  C1[X(C2H6BrO)]
 Deg. of freedom    24
 Full point group                 C1      NOp   1
 Rotational constants (GHZ):     13.8611203      1.3061371      1.2168652

 **********************************************************************

            Population analysis using the SCF density.

 **********************************************************************

 Alpha  occ. eigenvalues --   -0.96993  -0.85466  -0.80850  -0.58958  -0.54894
 Alpha  occ. eigenvalues --   -0.41493  -0.38625  -0.35044  -0.31192  -0.27563
 Alpha  occ. eigenvalues --   -0.24739  -0.16526  -0.16428  -0.11448
 Alpha virt. eigenvalues --    0.21734   0.29051   0.36059   0.37373   0.38154
 Alpha virt. eigenvalues --    0.39217   0.41405   0.43329   4.58787   4.58818
 Alpha virt. eigenvalues --    4.59427   4.59530   4.59678
          Condensed to atoms (all electrons):
               1          2          3          4          5          6
     1  C    4.722394   0.000000   0.000000   0.000000   0.000000   0.000000
     2  H    0.000000   0.855658   0.000000   0.000000   0.000000   0.000000
     3  H    0.000000   0.000000   0.859614   0.000000   0.000000   0.000000
     4  H    0.000000   0.000000   0.000000   0.642535   0.000000   0.000000
     5  C    0.000000   0.000000   0.000000   0.000000   3.933938   0.000000
     6  H    0.000000   0.000000   0.000000   0.000000   0.000000   0.897920
     7  H    0.000000   0.000000   0.000000   0.000000   0.000000   0.000000
     8  Br   0.000000   0.000000   0.000000   0.000000   0.000000   0.000000
     9  O    0.000000   0.000000   0.000000   0.000000   0.000000   0.000000
    10  H    0.000000   0.000000   0.000000   0.000000   0.000000   0.000000
               7          8          9         10
     1  C    0.000000   0.000000   0.000000   0.000000
     2  H    0.000000   0.000000   0.000000   0.000000
     3  H    0.000000   0.000000   0.000000   0.000000
     4  H    0.000000   0.000000   0.000000   0.000000
     5  C    0.000000   0.000000   0.000000   0.000000
     6  H    0.000000   0.000000   0.000000   0.000000
     7  H    0.885035   0.000000   0.000000   0.000000
     8  Br   0.000000   7.805671   0.000000   0.000000
     9  O    0.000000   0.000000   6.689788   0.000000
    10  H    0.000000   0.000000   0.000000   0.707448
 Mulliken charges:
               1
     1  C   -0.722394
     2  H    0.144342
     3  H    0.140386
     4  H    0.357465
     5  C    0.066062
     6  H    0.102080
     7  H    0.114965
     8  Br  -0.805671
     9  O   -0.689788
    10  H    0.292552
 Sum of Mulliken charges =  -1.00000
 Mulliken charges with hydrogens summed into heavy atoms:
               1
     1  C   -0.437666
     5  C    0.283108
     8  Br  -0.805671
     9  O   -0.039771
 APT charges:
               1
     1  C   -0.722394
     2  H    0.144342
     3  H    0.140386
     4  H    0.357465
     5  C    0.066062
     6  H    0.102080
     7  H    0.114965
     8  Br  -0.805671
     9  O   -0.689788
    10  H    0.292552
 Sum of APT charges =  -1.00000
 APT charges with hydrogens summed into heavy atoms:
               1
     1  C   -0.437666
     5  C    0.283108
     8  Br  -0.805671
     9  O   -0.039771
 Charge=             -1.0000 electrons
 Dipole moment (field-independent basis, Debye):
    X=              2.1910    Y=              0.3133    Z=              1.2963  Tot=              2.5650
 N-N= 9.057662311088D+01 E-N=-1.554258158487D+02  KE=-1.359004822560D+01
  Exact polarizability:   0.000   0.000   0.000   0.000   0.000   0.000
 Approx polarizability:  33.871  -8.939  25.557   0.908   0.358  13.207

 This type of calculation cannot be archived.


 THEREFORE SHALL EVIL COME UPON THEE...
 THOU SHALT NOT KNOW FROM WHENCE IT RISETH...
 AND MISCHIEF SHALL FALL UPON THEE...
 THOU SHALT NOT BE ABLE TO PUT IT OFF...
 AND DESOLATION SHALL COME UPON THEE SUDDENLY...
 WHICH THOU SHALT NOT KNOW...

                                         ISAIAH 47.11
 Job cpu time:       0 days  0 hours  1 minutes 21.0 seconds.
 File lengths (MBytes):  RWF=      5 Int=      0 D2E=      0 Chk=      3 Scr=      1
 Normal termination of Gaussian 09 at Thu Mar 17 18:44:25 2022.
