 Entering Link 1 = C:\G09W\l1.exe PID=      7176.
  
 Copyright (c) 1988,1990,1992,1993,1995,1998,2003,2009,2013,
            Gaussian, Inc.  All Rights Reserved.
  
 This is part of the Gaussian(R) 09 program.  It is based on
 the Gaussian(R) 03 system (copyright 2003, Gaussian, Inc.),
 the Gaussian(R) 98 system (copyright 1998, Gaussian, Inc.),
 the Gaussian(R) 94 system (copyright 1995, Gaussian, Inc.),
 the Gaussian 92(TM) system (copyright 1992, Gaussian, Inc.),
 the Gaussian 90(TM) system (copyright 1990, Gaussian, Inc.),
 the Gaussian 88(TM) system (copyright 1988, Gaussian, Inc.),
 the Gaussian 86(TM) system (copyright 1986, Carnegie Mellon
 University), and the Gaussian 82(TM) system (copyright 1983,
 Carnegie Mellon University). Gaussian is a federally registered
 trademark of Gaussian, Inc.
  
 This software contains proprietary and confidential information,
 including trade secrets, belonging to Gaussian, Inc.
  
 This software is provided under written license and may be
 used, copied, transmitted, or stored only in accord with that
 written license.
  
 The following legend is applicable only to US Government
 contracts under FAR:
  
                    RESTRICTED RIGHTS LEGEND
  
 Use, reproduction and disclosure by the US Government is
 subject to restrictions as set forth in subparagraphs (a)
 and (c) of the Commercial Computer Software - Restricted
 Rights clause in FAR 52.227-19.
  
 Gaussian, Inc.
 340 Quinnipiac St., Bldg. 40, Wallingford CT 06492
  
  
 ---------------------------------------------------------------
 Warning -- This program may not be used in any manner that
 competes with the business of Gaussian, Inc. or will provide
 assistance to any competitor of Gaussian, Inc.  The licensee
 of this program is prohibited from giving any competitor of
 Gaussian, Inc. access to this program.  By using this program,
 the user acknowledges that Gaussian, Inc. is engaged in the
 business of creating and licensing software in the field of
 computational chemistry and represents and warrants to the
 licensee that it is not a competitor of Gaussian, Inc. and that
 it will not use this program in any manner prohibited above.
 ---------------------------------------------------------------
  

 Cite this work as:
 Gaussian 09, Revision D.01,
 M. J. Frisch, G. W. Trucks, H. B. Schlegel, G. E. Scuseria, 
 M. A. Robb, J. R. Cheeseman, G. Scalmani, V. Barone, B. Mennucci, 
 G. A. Petersson, H. Nakatsuji, M. Caricato, X. Li, H. P. Hratchian, 
 A. F. Izmaylov, J. Bloino, G. Zheng, J. L. Sonnenberg, M. Hada, 
 M. Ehara, K. Toyota, R. Fukuda, J. Hasegawa, M. Ishida, T. Nakajima, 
 Y. Honda, O. Kitao, H. Nakai, T. Vreven, J. A. Montgomery, Jr., 
 J. E. Peralta, F. Ogliaro, M. Bearpark, J. J. Heyd, E. Brothers, 
 K. N. Kudin, V. N. Staroverov, T. Keith, R. Kobayashi, J. Normand, 
 K. Raghavachari, A. Rendell, J. C. Burant, S. S. Iyengar, J. Tomasi, 
 M. Cossi, N. Rega, J. M. Millam, M. Klene, J. E. Knox, J. B. Cross, 
 V. Bakken, C. Adamo, J. Jaramillo, R. Gomperts, R. E. Stratmann, 
 O. Yazyev, A. J. Austin, R. Cammi, C. Pomelli, J. W. Ochterski, 
 R. L. Martin, K. Morokuma, V. G. Zakrzewski, G. A. Voth, 
 P. Salvador, J. J. Dannenberg, S. Dapprich, A. D. Daniels, 
 O. Farkas, J. B. Foresman, J. V. Ortiz, J. Cioslowski, 
 and D. J. Fox, Gaussian, Inc., Wallingford CT, 2013.
 
 ******************************************
 Gaussian 09:  IA32W-G09RevD.01 24-Apr-2013
                17-Mar-2022 
 ******************************************
 %nprocshared=4
 Will use up to    4 processors via shared memory.
 %mem=1GB
 ----------------------------------
 # opt=(calcfc,ts,noeigen) freq pm6
 ----------------------------------
 1/5=1,10=4,11=1,14=-1,18=20,26=1,38=1/1,3;
 2/9=110,12=2,17=6,18=5,40=1/2;
 3/5=2,16=1,25=1,41=3900000,71=2,140=1/1,2,3;
 4/35=1/1;
 5/5=2,35=1,38=5/2;
 8/6=4,10=90,11=11/1;
 11/6=1,8=1,9=11,15=111,16=1/1,2,10;
 10/6=1,13=1/2;
 6/7=2,8=2,9=2,10=2,28=1/1;
 7/10=1,18=20,25=1/1,2,3,16;
 1/5=1,10=4,11=1,14=-1,18=20,26=1/3(2);
 2/9=110/2;
 99//99;
 2/9=110/2;
 3/5=2,16=1,25=1,41=3900000,71=1,135=20/1,2,3;
 4/5=5,16=3,35=1/1;
 5/5=2,35=1,38=5/2;
 7//1,2,3,16;
 1/5=1,11=1,14=-1,18=20,26=1/3(-5);
 2/9=110/2;
 6/7=2,8=2,9=2,10=2,19=2,28=1/1;
 99/9=1/99;
 ----------------------
 Energy Calculation(GC)
 ----------------------
 Symbolic Z-matrix:
 Charge = -1 Multiplicity = 1
 C                    -0.22744  -0.27901  -0.99223 
 O                     0.34008   0.80258  -1.07854 
 N                     0.20687  -0.40821   0.95576 
 H                    -0.50862  -0.41866   1.65432 
 H                     1.06692  -0.10226   1.36406 
 C                     0.39846  -1.56404  -1.21701 
 H                     0.07061  -2.03089  -2.12225 
 H                     1.45754  -1.41641  -1.25513 
 H                     0.15542  -2.19052  -0.38432 
 C                    -1.83408  -0.28414  -0.65795 
 H                    -2.30572  -0.78857  -1.47527 
 H                    -2.06711  -0.79      0.25566 
 H                    -2.18939   0.72392  -0.60814 
 
 Add virtual bond connecting atoms N3         and C1         Dist= 3.78D+00.
 Add virtual bond connecting atoms H4         and H12        Dist= 4.02D+00.

 GradGradGradGradGradGradGradGradGradGradGradGradGradGradGradGradGradGrad
 Berny optimization.
 Initialization pass.
                           ----------------------------
                           !    Initial Parameters    !
                           ! (Angstroms and Degrees)  !
 --------------------------                            --------------------------
 ! Name  Definition              Value          Derivative Info.                !
 --------------------------------------------------------------------------------
 ! R1    R(1,2)                  1.2245         calculate D2E/DX2 analytically  !
 ! R2    R(1,3)                  2.0            calculate D2E/DX2 analytically  !
 ! R3    R(1,6)                  1.4469         calculate D2E/DX2 analytically  !
 ! R4    R(1,10)                 1.6411         calculate D2E/DX2 analytically  !
 ! R5    R(3,4)                  1.0            calculate D2E/DX2 analytically  !
 ! R6    R(3,5)                  1.0            calculate D2E/DX2 analytically  !
 ! R7    R(4,12)                 2.1267         calculate D2E/DX2 analytically  !
 ! R8    R(6,7)                  1.07           calculate D2E/DX2 analytically  !
 ! R9    R(6,8)                  1.07           calculate D2E/DX2 analytically  !
 ! R10   R(6,9)                  1.07           calculate D2E/DX2 analytically  !
 ! R11   R(10,11)                1.07           calculate D2E/DX2 analytically  !
 ! R12   R(10,12)                1.07           calculate D2E/DX2 analytically  !
 ! R13   R(10,13)                1.07           calculate D2E/DX2 analytically  !
 ! A1    A(2,1,3)               91.4361         calculate D2E/DX2 analytically  !
 ! A2    A(2,1,6)              124.9618         calculate D2E/DX2 analytically  !
 ! A3    A(2,1,10)             118.0912         calculate D2E/DX2 analytically  !
 ! A4    A(3,1,6)               90.0            calculate D2E/DX2 analytically  !
 ! A5    A(3,1,10)              90.8021         calculate D2E/DX2 analytically  !
 ! A6    A(6,1,10)             116.8962         calculate D2E/DX2 analytically  !
 ! A7    A(1,3,4)              121.7149         calculate D2E/DX2 analytically  !
 ! A8    A(1,3,5)              124.3803         calculate D2E/DX2 analytically  !
 ! A9    A(4,3,5)              109.4713         calculate D2E/DX2 analytically  !
 ! A10   A(3,4,12)              93.8264         calculate D2E/DX2 analytically  !
 ! A11   A(1,6,7)              112.729          calculate D2E/DX2 analytically  !
 ! A12   A(1,6,8)              108.129          calculate D2E/DX2 analytically  !
 ! A13   A(1,6,9)              107.5077         calculate D2E/DX2 analytically  !
 ! A14   A(7,6,8)              109.4713         calculate D2E/DX2 analytically  !
 ! A15   A(7,6,9)              109.4712         calculate D2E/DX2 analytically  !
 ! A16   A(8,6,9)              109.4712         calculate D2E/DX2 analytically  !
 ! A17   A(1,10,11)            106.1061         calculate D2E/DX2 analytically  !
 ! A18   A(1,10,12)            112.8684         calculate D2E/DX2 analytically  !
 ! A19   A(1,10,13)            109.3687         calculate D2E/DX2 analytically  !
 ! A20   A(11,10,12)           109.4713         calculate D2E/DX2 analytically  !
 ! A21   A(11,10,13)           109.4712         calculate D2E/DX2 analytically  !
 ! A22   A(12,10,13)           109.4712         calculate D2E/DX2 analytically  !
 ! A23   A(4,12,10)            108.6263         calculate D2E/DX2 analytically  !
 ! D1    D(2,1,3,4)            116.3088         calculate D2E/DX2 analytically  !
 ! D2    D(2,1,3,5)            -37.5369         calculate D2E/DX2 analytically  !
 ! D3    D(6,1,3,4)           -118.7168         calculate D2E/DX2 analytically  !
 ! D4    D(6,1,3,5)             87.4375         calculate D2E/DX2 analytically  !
 ! D5    D(10,1,3,4)            -1.8178         calculate D2E/DX2 analytically  !
 ! D6    D(10,1,3,5)          -155.6635         calculate D2E/DX2 analytically  !
 ! D7    D(2,1,6,7)           -109.0219         calculate D2E/DX2 analytically  !
 ! D8    D(2,1,6,8)             12.1381         calculate D2E/DX2 analytically  !
 ! D9    D(2,1,6,9)            130.2413         calculate D2E/DX2 analytically  !
 ! D10   D(3,1,6,7)            159.2256         calculate D2E/DX2 analytically  !
 ! D11   D(3,1,6,8)            -79.6144         calculate D2E/DX2 analytically  !
 ! D12   D(3,1,6,9)             38.4889         calculate D2E/DX2 analytically  !
 ! D13   D(10,1,6,7)            68.3262         calculate D2E/DX2 analytically  !
 ! D14   D(10,1,6,8)          -170.5138         calculate D2E/DX2 analytically  !
 ! D15   D(10,1,6,9)           -52.4105         calculate D2E/DX2 analytically  !
 ! D16   D(2,1,10,11)          120.9773         calculate D2E/DX2 analytically  !
 ! D17   D(2,1,10,12)         -119.1329         calculate D2E/DX2 analytically  !
 ! D18   D(2,1,10,13)            2.9902         calculate D2E/DX2 analytically  !
 ! D19   D(3,1,10,11)         -146.9663         calculate D2E/DX2 analytically  !
 ! D20   D(3,1,10,12)          -27.0764         calculate D2E/DX2 analytically  !
 ! D21   D(3,1,10,13)           95.0466         calculate D2E/DX2 analytically  !
 ! D22   D(6,1,10,11)          -56.5594         calculate D2E/DX2 analytically  !
 ! D23   D(6,1,10,12)           63.3305         calculate D2E/DX2 analytically  !
 ! D24   D(6,1,10,13)         -174.5465         calculate D2E/DX2 analytically  !
 ! D25   D(1,3,4,12)            14.0224         calculate D2E/DX2 analytically  !
 ! D26   D(5,3,4,12)           171.3256         calculate D2E/DX2 analytically  !
 ! D27   D(3,4,12,10)          -34.5734         calculate D2E/DX2 analytically  !
 ! D28   D(1,10,12,4)           35.8029         calculate D2E/DX2 analytically  !
 ! D29   D(11,10,12,4)         153.7375         calculate D2E/DX2 analytically  !
 ! D30   D(13,10,12,4)         -86.2625         calculate D2E/DX2 analytically  !
 --------------------------------------------------------------------------------
 Trust Radius=3.00D-01 FncErr=1.00D-07 GrdErr=1.00D-07
 Number of steps in this run=     76 maximum allowed number of steps=    100.
 Search for a saddle point of order  1.
 GradGradGradGradGradGradGradGradGradGradGradGradGradGradGradGradGradGrad

                          Input orientation:                          
 ---------------------------------------------------------------------
 Center     Atomic      Atomic             Coordinates (Angstroms)
 Number     Number       Type             X           Y           Z
 ---------------------------------------------------------------------
      1          6           0       -0.227443   -0.279012   -0.992232
      2          8           0        0.340084    0.802581   -1.078537
      3          7           0        0.206867   -0.408208    0.955763
      4          1           0       -0.508615   -0.418664    1.654315
      5          1           0        1.066920   -0.102265    1.364061
      6          6           0        0.398462   -1.564043   -1.217006
      7          1           0        0.070611   -2.030891   -2.122250
      8          1           0        1.457542   -1.416408   -1.255129
      9          1           0        0.155422   -2.190517   -0.384322
     10          6           0       -1.834082   -0.284136   -0.657954
     11          1           0       -2.305718   -0.788570   -1.475270
     12          1           0       -2.067107   -0.790004    0.255664
     13          1           0       -2.189394    0.723917   -0.608138
 ---------------------------------------------------------------------
                    Distance matrix (angstroms):
                    1          2          3          4          5
     1  C    0.000000
     2  O    1.224491   0.000000
     3  N    2.000000   2.371104   0.000000
     4  H    2.665103   3.111304   1.000000   0.000000
     5  H    2.694203   2.704316   1.000000   1.632993   0.000000
     6  C    1.446923   2.371390   2.468519   3.221672   3.040648
     7  H    2.105910   3.031586   3.482216   4.146954   4.106896
     8  H    2.049868   2.490744   2.732891   3.650497   2.956300
     9  H    2.042056   3.078095   2.230493   2.781448   2.872015
    10  C    1.641053   2.466748   2.604793   2.668623   3.540824
    11  H    2.193673   3.112785   3.516771   3.627770   4.461783
    12  H    2.280947   3.179778   2.409744   2.126738   3.394651
    13  H    2.236659   2.574048   3.077265   3.041251   3.895604
                    6          7          8          9         10
     6  C    0.000000
     7  H    1.070000   0.000000
     8  H    1.070000   1.747303   0.000000
     9  H    1.070000   1.747303   1.747303   0.000000
    10  C    2.633430   2.970382   3.531776   2.768987   0.000000
    11  H    2.825005   2.758421   3.821619   3.035265   1.070000
    12  H    2.974378   3.429885   3.885617   2.703821   1.070000
    13  H    3.507490   3.871579   4.277818   3.747290   1.070000
                   11         12         13
    11  H    0.000000
    12  H    1.747303   0.000000
    13  H    1.747303   1.747303   0.000000
 Stoichiometry    C3H8NO(1-)
 Framework group  C1[X(C3H8NO)]
 Deg. of freedom    33
 Full point group                 C1      NOp   1
 Largest Abelian subgroup         C1      NOp   1
 Largest concise Abelian subgroup C1      NOp   1
                         Standard orientation:                         
 ---------------------------------------------------------------------
 Center     Atomic      Atomic             Coordinates (Angstroms)
 Number     Number       Type             X           Y           Z
 ---------------------------------------------------------------------
      1          6           0        0.104204   -0.386604    0.260157
      2          8           0       -0.164096   -0.131363    1.427310
      3          7           0       -0.741194    1.316804   -0.359281
      4          1           0       -0.208268    2.036975   -0.803513
      5          1           0       -1.571076    1.711385    0.035185
      6          6           0       -0.744605   -1.135581   -0.641035
      7          1           0       -0.355278   -2.106927   -0.864220
      8          1           0       -1.708348   -1.233389   -0.186577
      9          1           0       -0.832348   -0.570117   -1.545165
     10          6           0        1.560284    0.097488   -0.321686
     11          1           0        2.059247   -0.790612   -0.649122
     12          1           0        1.474515    0.780914   -1.140509
     13          1           0        2.123378    0.553233    0.465792
 ---------------------------------------------------------------------
 Rotational constants (GHZ):      4.8754534      4.6644385      4.2642568
 Standard basis: VSTO-6G (5D, 7F)
 There are    28 symmetry adapted cartesian basis functions of A   symmetry.
 There are    28 symmetry adapted basis functions of A   symmetry.
    28 basis functions,   168 primitive gaussians,    28 cartesian basis functions
    16 alpha electrons       16 beta electrons
       nuclear repulsion energy       128.2939163583 Hartrees.
 Integral buffers will be    262144 words long.
 Regular integral format.
 Two-electron integral symmetry is turned off.
 Do NDO integrals.
 One-electron integrals computed using PRISM.
 NBasis=    28 RedAO= F EigKep=  0.00D+00  NBF=    28
 NBsUse=    28 1.00D-04 EigRej=  0.00D+00 NBFU=    28
 Simple Huckel Guess.
 Overlap will be assumed to be unity.
 Keep J ints in memory in canonical form, NReq=886526.
 Requested convergence on RMS density matrix=1.00D-08 within 128 cycles.
 Requested convergence on MAX density matrix=1.00D-06.
 Requested convergence on             energy=1.00D-06.
 No special actions if energy rises.
 SCF Done:  E(RPM6) = -0.299393163744E-01 A.U. after   14 cycles
            NFock= 13  Conv=0.37D-08     -V/T= 0.9984
 Range of M.O.s used for correlation:     1    28
 NBasis=    28 NAE=    16 NBE=    16 NFC=     0 NFV=     0
 NROrb=     28 NOA=    16 NOB=    16 NVA=    12 NVB=    12
 Symmetrizing basis deriv contribution to polar:
 IMax=3 JMax=2 DiffMx= 0.00D+00
 G2DrvN: will do    14 centers at a time, making    1 passes.
 Calling FoFCou, ICntrl=  3107 FMM=F I1Cent=   0 AccDes= 0.00D+00.
 End of G2Drv F.D. properties file   721 does not exist.
 End of G2Drv F.D. properties file   722 does not exist.
 End of G2Drv F.D. properties file   788 does not exist.
          IDoAtm=1111111111111
          Differentiating once with respect to nuclear coordinates.
          Electric field/nuclear overlap derivatives assumed to be zero.
 Keep J ints in memory in canonical form, NReq=869541.
          There are    42 degrees of freedom in the 1st order CPHF.  IDoFFX=5 NUNeed=    42.
 LinEq1:  Iter=  0 NonCon=    39 RMS=2.87D-02 Max=1.71D-01 NDo=    39
 AX will form    42 AO Fock derivatives at one time.
 LinEq1:  Iter=  1 NonCon=    39 RMS=4.03D-03 Max=1.80D-02 NDo=    42
 LinEq1:  Iter=  2 NonCon=    39 RMS=5.33D-04 Max=3.29D-03 NDo=    42
 LinEq1:  Iter=  3 NonCon=    39 RMS=8.01D-05 Max=6.31D-04 NDo=    42
 LinEq1:  Iter=  4 NonCon=    39 RMS=1.03D-05 Max=6.53D-05 NDo=    42
 LinEq1:  Iter=  5 NonCon=    39 RMS=1.12D-06 Max=6.74D-06 NDo=    42
 LinEq1:  Iter=  6 NonCon=    39 RMS=1.24D-07 Max=5.91D-07 NDo=    42
 LinEq1:  Iter=  7 NonCon=     6 RMS=1.72D-08 Max=8.64D-08 NDo=    42
 LinEq1:  Iter=  8 NonCon=     0 RMS=2.39D-09 Max=1.46D-08 NDo=    42
 Linear equations converged to 1.000D-08 1.000D-07 after     8 iterations.
 End of Minotr F.D. properties file   721 does not exist.
 End of Minotr F.D. properties file   722 does not exist.
 End of Minotr F.D. properties file   788 does not exist.

 **********************************************************************

            Population analysis using the SCF density.

 **********************************************************************

 Orbital symmetries:
       Occupied  (A) (A) (A) (A) (A) (A) (A) (A) (A) (A) (A) (A)
                 (A) (A) (A) (A)
       Virtual   (A) (A) (A) (A) (A) (A) (A) (A) (A) (A) (A) (A)
 The electronic state is 1-A.
 Alpha  occ. eigenvalues --   -0.91826  -0.81793  -0.78033  -0.73154  -0.50607
 Alpha  occ. eigenvalues --   -0.39354  -0.37987  -0.36167  -0.34388  -0.30628
 Alpha  occ. eigenvalues --   -0.29840  -0.27280  -0.26110  -0.15452  -0.13515
 Alpha  occ. eigenvalues --   -0.06115
 Alpha virt. eigenvalues --    0.28089   0.32165   0.36031   0.37595   0.38599
 Alpha virt. eigenvalues --    0.39447   0.40073   0.41672   0.43369   0.44001
 Alpha virt. eigenvalues --    0.47258   0.52890
          Condensed to atoms (all electrons):
               1          2          3          4          5          6
     1  C    3.212709   0.000000   0.000000   0.000000   0.000000   0.000000
     2  O    0.000000   6.718770   0.000000   0.000000   0.000000   0.000000
     3  N    0.000000   0.000000   6.107809   0.000000   0.000000   0.000000
     4  H    0.000000   0.000000   0.000000   0.836984   0.000000   0.000000
     5  H    0.000000   0.000000   0.000000   0.000000   0.818255   0.000000
     6  C    0.000000   0.000000   0.000000   0.000000   0.000000   4.600818
     7  H    0.000000   0.000000   0.000000   0.000000   0.000000   0.000000
     8  H    0.000000   0.000000   0.000000   0.000000   0.000000   0.000000
     9  H    0.000000   0.000000   0.000000   0.000000   0.000000   0.000000
    10  C    0.000000   0.000000   0.000000   0.000000   0.000000   0.000000
    11  H    0.000000   0.000000   0.000000   0.000000   0.000000   0.000000
    12  H    0.000000   0.000000   0.000000   0.000000   0.000000   0.000000
    13  H    0.000000   0.000000   0.000000   0.000000   0.000000   0.000000
               7          8          9         10         11         12
     1  C    0.000000   0.000000   0.000000   0.000000   0.000000   0.000000
     2  O    0.000000   0.000000   0.000000   0.000000   0.000000   0.000000
     3  N    0.000000   0.000000   0.000000   0.000000   0.000000   0.000000
     4  H    0.000000   0.000000   0.000000   0.000000   0.000000   0.000000
     5  H    0.000000   0.000000   0.000000   0.000000   0.000000   0.000000
     6  C    0.000000   0.000000   0.000000   0.000000   0.000000   0.000000
     7  H    0.882196   0.000000   0.000000   0.000000   0.000000   0.000000
     8  H    0.000000   0.827609   0.000000   0.000000   0.000000   0.000000
     9  H    0.000000   0.000000   0.793185   0.000000   0.000000   0.000000
    10  C    0.000000   0.000000   0.000000   4.613205   0.000000   0.000000
    11  H    0.000000   0.000000   0.000000   0.000000   0.894468   0.000000
    12  H    0.000000   0.000000   0.000000   0.000000   0.000000   0.839730
    13  H    0.000000   0.000000   0.000000   0.000000   0.000000   0.000000
              13
     1  C    0.000000
     2  O    0.000000
     3  N    0.000000
     4  H    0.000000
     5  H    0.000000
     6  C    0.000000
     7  H    0.000000
     8  H    0.000000
     9  H    0.000000
    10  C    0.000000
    11  H    0.000000
    12  H    0.000000
    13  H    0.854261
 Mulliken charges:
               1
     1  C    0.787291
     2  O   -0.718770
     3  N   -1.107809
     4  H    0.163016
     5  H    0.181745
     6  C   -0.600818
     7  H    0.117804
     8  H    0.172391
     9  H    0.206815
    10  C   -0.613205
    11  H    0.105532
    12  H    0.160270
    13  H    0.145739
 Sum of Mulliken charges =  -1.00000
 Mulliken charges with hydrogens summed into heavy atoms:
               1
     1  C    0.787291
     2  O   -0.718770
     3  N   -0.763048
     6  C   -0.103808
    10  C   -0.201665
 APT charges:
               1
     1  C    0.787291
     2  O   -0.718770
     3  N   -1.107809
     4  H    0.163016
     5  H    0.181745
     6  C   -0.600818
     7  H    0.117804
     8  H    0.172391
     9  H    0.206815
    10  C   -0.613205
    11  H    0.105532
    12  H    0.160270
    13  H    0.145739
 Sum of APT charges =  -1.00000
 APT charges with hydrogens summed into heavy atoms:
               1
     1  C    0.787291
     2  O   -0.718770
     3  N   -0.763048
     6  C   -0.103808
    10  C   -0.201665
 Charge=             -1.0000 electrons
 Dipole moment (field-independent basis, Debye):
    X=              2.0822    Y=             -3.0460    Z=             -2.9464  Tot=              4.7217
 N-N= 1.282939163583D+02 E-N=-2.247171435839D+02  KE=-1.848560798846D+01
  Exact polarizability:   0.000   0.000   0.000   0.000   0.000   0.000
 Approx polarizability:  19.530  -1.427  21.396  -3.822  -2.105  24.506
 Calling FoFJK, ICntrl=    100147 FMM=F ISym2X=0 I1Cent= 0 IOpClX= 0 NMat=1 NMatS=1 NMatT=0.
 ***** Axes restored to original set *****
 -------------------------------------------------------------------
 Center     Atomic                   Forces (Hartrees/Bohr)
 Number     Number              X              Y              Z
 -------------------------------------------------------------------
      1        6          -0.043349460    0.050027623    0.114827906
      2        8           0.000761265    0.022435402   -0.042691985
      3        7          -0.003566779   -0.024761757    0.002665536
      4        1           0.003799359    0.007309599   -0.002824860
      5        1          -0.007285497    0.006795244   -0.007289754
      6        6           0.003351147   -0.031399656   -0.035673457
      7        1          -0.002517536   -0.008147618   -0.011531549
      8        1           0.017474660   -0.002212962    0.001406277
      9        1           0.000060245   -0.016116276    0.014286292
     10        6           0.031843279   -0.004756477   -0.036646512
     11        1          -0.007122431   -0.004137933   -0.005515563
     12        1           0.004464189   -0.003115559    0.006523228
     13        1           0.002087559    0.008080370    0.002464441
 -------------------------------------------------------------------
 Cartesian Forces:  Max     0.114827906 RMS     0.026132030
 FormGI is forming the generalized inverse of G from B-inverse, IUseBI=4.

 GradGradGradGradGradGradGradGradGradGradGradGradGradGradGradGradGradGrad
 Berny optimization.
 Internal  Forces:  Max     0.064242022 RMS     0.011777123
 Search for a saddle point.
 Step number   1 out of a maximum of   76
 All quantities printed in internal units (Hartrees-Bohrs-Radians)
 Swapping is turned off.
 Second derivative matrix not updated -- analytic derivatives used.
 ITU=  0
     Eigenvalues ---   -0.02298  -0.00645  -0.00056   0.00003   0.00059
     Eigenvalues ---    0.00692   0.02626   0.02778   0.03609   0.03637
     Eigenvalues ---    0.03776   0.05150   0.06329   0.06657   0.07003
     Eigenvalues ---    0.08661   0.09035   0.10005   0.11749   0.12095
     Eigenvalues ---    0.13369   0.14489   0.19539   0.24839   0.26919
     Eigenvalues ---    0.27777   0.28185   0.28657   0.30082   0.30164
     Eigenvalues ---    0.31133   0.53551   0.79759
 Eigenvectors required to have negative eigenvalues:
                          R2        A23       A8        D9        D7
   1                   -0.70397  -0.20023  -0.20002   0.18984   0.17890
                          D17       D16       D14       D26       D8
   1                   -0.15215  -0.15191  -0.14498  -0.14498   0.14473
 RFO step:  Lambda0=2.064019850D-02 Lambda=-3.11269919D-02.
 Linear search not attempted -- option 19 set.
 Maximum step size (   0.300) exceeded in Quadratic search.
    -- Step size scaled by   0.454
 Iteration  1 RMS(Cart)=  0.05676408 RMS(Int)=  0.00408743
 Iteration  2 RMS(Cart)=  0.00263103 RMS(Int)=  0.00289023
 Iteration  3 RMS(Cart)=  0.00000953 RMS(Int)=  0.00289021
 Iteration  4 RMS(Cart)=  0.00000002 RMS(Int)=  0.00289021
 Variable       Old X    -DE/DX   Delta X   Delta X   Delta X     New X
                                 (Linear)    (Quad)   (Total)
    R1        2.31395   0.02318   0.00000  -0.00559  -0.00559   2.30836
    R2        3.77945  -0.00741   0.00000   0.18380   0.18410   3.96355
    R3        2.73429   0.06424   0.00000   0.04820   0.04820   2.78249
    R4        3.10114  -0.03401   0.00000  -0.11825  -0.11928   2.98186
    R5        1.88973  -0.00724   0.00000  -0.00515  -0.00402   1.88571
    R6        1.88973  -0.00716   0.00000  -0.01002  -0.01002   1.87970
    R7        4.01895  -0.00253   0.00000   0.10506   0.10559   4.12455
    R8        2.02201   0.01408   0.00000   0.01179   0.01179   2.03380
    R9        2.02201   0.01694   0.00000   0.01847   0.01847   2.04048
   R10        2.02201   0.02054   0.00000   0.02472   0.02472   2.04673
   R11        2.02201   0.00930   0.00000   0.01605   0.01605   2.03805
   R12        2.02201   0.00699   0.00000   0.01999   0.01878   2.04079
   R13        2.02201   0.00703   0.00000   0.01726   0.01726   2.03926
    A1        1.59586   0.01080   0.00000   0.01675   0.01770   1.61356
    A2        2.18099   0.00234   0.00000  -0.01863  -0.01862   2.16238
    A3        2.06108   0.00114   0.00000   0.02237   0.02165   2.08273
    A4        1.57080   0.00052   0.00000  -0.00608  -0.00734   1.56346
    A5        1.58480   0.00724   0.00000  -0.00121  -0.00100   1.58380
    A6        2.04022  -0.00432   0.00000  -0.00420  -0.00354   2.03668
    A7        2.12433   0.00142   0.00000   0.04555   0.03642   2.16075
    A8        2.17085  -0.00708   0.00000   0.08051   0.06831   2.23916
    A9        1.91063   0.00310   0.00000  -0.02441  -0.03755   1.87308
   A10        1.63758  -0.00687   0.00000  -0.07752  -0.07345   1.56413
   A11        1.96749   0.00189   0.00000   0.00464   0.00460   1.97209
   A12        1.88721   0.00410   0.00000   0.00663   0.00659   1.89380
   A13        1.87636   0.00745   0.00000  -0.00147  -0.00148   1.87488
   A14        1.91063  -0.00299   0.00000   0.00627   0.00620   1.91684
   A15        1.91063  -0.00419   0.00000   0.00721   0.00720   1.91783
   A16        1.91063  -0.00629   0.00000  -0.02458  -0.02459   1.88605
   A17        1.85190   0.00528   0.00000   0.04290   0.04276   1.89466
   A18        1.96993  -0.00256   0.00000  -0.02920  -0.03008   1.93985
   A19        1.90884  -0.00425   0.00000   0.00058   0.00061   1.90946
   A20        1.91063  -0.00117   0.00000  -0.00519  -0.00351   1.90713
   A21        1.91063   0.00074   0.00000   0.00167   0.00126   1.91189
   A22        1.91063   0.00208   0.00000  -0.00883  -0.00990   1.90074
   A23        1.89589   0.00159   0.00000   0.06740   0.06436   1.96025
    D1        2.02997  -0.00321   0.00000   0.15557   0.15842   2.18839
    D2       -0.65514   0.00312   0.00000  -0.12312  -0.12520  -0.78034
    D3       -2.07200  -0.00066   0.00000   0.13704   0.13983  -1.93217
    D4        1.52607   0.00567   0.00000  -0.14165  -0.14378   1.38229
    D5       -0.03173  -0.00492   0.00000   0.13273   0.13619   0.10446
    D6       -2.71684   0.00141   0.00000  -0.14596  -0.14743  -2.86427
    D7       -1.90279   0.01232   0.00000  -0.00525  -0.00524  -1.90803
    D8        0.21185   0.01258   0.00000   0.01015   0.01019   0.22204
    D9        2.27314   0.01137   0.00000  -0.01611  -0.01608   2.25706
   D10        2.77901  -0.00127   0.00000  -0.02104  -0.02125   2.75777
   D11       -1.38953  -0.00101   0.00000  -0.00564  -0.00582  -1.39535
   D12        0.67176  -0.00223   0.00000  -0.03190  -0.03209   0.63967
   D13        1.19252  -0.00962   0.00000  -0.01656  -0.01641   1.17611
   D14       -2.97603  -0.00936   0.00000  -0.00117  -0.00098  -2.97701
   D15       -0.91474  -0.01058   0.00000  -0.02742  -0.02725  -0.94199
   D16        2.11145  -0.01227   0.00000  -0.07593  -0.07571   2.03574
   D17       -2.07926  -0.01173   0.00000  -0.07112  -0.07022  -2.14948
   D18        0.05219  -0.01386   0.00000  -0.10186  -0.10204  -0.04985
   D19       -2.56505   0.00389   0.00000  -0.05684  -0.05523  -2.62027
   D20       -0.47257   0.00443   0.00000  -0.05204  -0.04974  -0.52231
   D21        1.65888   0.00229   0.00000  -0.08277  -0.08155   1.57732
   D22       -0.98715   0.00807   0.00000  -0.06435  -0.06401  -1.05115
   D23        1.10533   0.00861   0.00000  -0.05954  -0.05851   1.04681
   D24       -3.04641   0.00647   0.00000  -0.09028  -0.09033  -3.13674
   D25        0.24474   0.00386   0.00000  -0.11457  -0.10989   0.13485
   D26        2.99020  -0.00402   0.00000   0.14944   0.14436   3.13456
   D27       -0.60342  -0.00014   0.00000   0.06232   0.05952  -0.54390
   D28        0.62488  -0.00272   0.00000   0.04425   0.04496   0.66983
   D29        2.68322   0.00151   0.00000   0.07628   0.07718   2.76040
   D30       -1.50557   0.00298   0.00000   0.06974   0.07062  -1.43495
         Item               Value     Threshold  Converged?
 Maximum Force            0.064242     0.000450     NO 
 RMS     Force            0.011777     0.000300     NO 
 Maximum Displacement     0.174783     0.001800     NO 
 RMS     Displacement     0.056548     0.001200     NO 
 Predicted change in Energy=-4.422957D-03
 GradGradGradGradGradGradGradGradGradGradGradGradGradGradGradGradGradGrad

                          Input orientation:                          
 ---------------------------------------------------------------------
 Center     Atomic      Atomic             Coordinates (Angstroms)
 Number     Number       Type             X           Y           Z
 ---------------------------------------------------------------------
      1          6           0       -0.268747   -0.258984   -1.032105
      2          8           0        0.298207    0.814053   -1.171028
      3          7           0        0.200360   -0.344487    1.010395
      4          1           0       -0.478826   -0.465421    1.731388
      5          1           0        1.068978   -0.145224    1.452226
      6          6           0        0.384802   -1.564139   -1.225749
      7          1           0        0.046674   -2.076573   -2.109703
      8          1           0        1.452025   -1.408607   -1.278243
      9          1           0        0.175694   -2.164781   -0.349066
     10          6           0       -1.811146   -0.280956   -0.699840
     11          1           0       -2.331146   -0.758144   -1.515338
     12          1           0       -2.005274   -0.824144    0.213137
     13          1           0       -2.168052    0.731188   -0.587105
 ---------------------------------------------------------------------
                    Distance matrix (angstroms):
                    1          2          3          4          5
     1  C    0.000000
     2  O    1.221534   0.000000
     3  N    2.097422   2.471921   0.000000
     4  H    2.779145   3.265709   0.997873   0.000000
     5  H    2.823890   2.897544   0.994695   1.605041   0.000000
     6  C    1.472431   2.380397   2.553803   3.270733   3.106923
     7  H    2.136431   3.049606   3.571940   4.198327   4.178823
     8  H    2.084052   2.506593   2.817247   3.698063   3.032874
     9  H    2.072711   3.092585   2.272050   2.764871   2.849775
    10  C    1.577934   2.422897   2.641041   2.778485   3.597906
    11  H    2.176273   3.082831   3.599856   3.749401   4.554444
    12  H    2.210330   3.147320   2.393849   2.182616   3.383386
    13  H    2.187652   2.535796   3.052615   3.108178   3.924963
                    6          7          8          9         10
     6  C    0.000000
     7  H    1.076241   0.000000
     8  H    1.079774   1.764233   0.000000
     9  H    1.083083   1.767561   1.750482   0.000000
    10  C    2.597177   2.943374   3.500633   2.760321   0.000000
    11  H    2.847783   2.783084   3.845998   3.102107   1.078492
    12  H    2.886252   3.342851   3.810345   2.621069   1.079938
    13  H    3.491913   3.886751   4.261614   3.733155   1.079132
                   11         12         13
    11  H    0.000000
    12  H    1.760164   0.000000
    13  H    1.762477   1.756685   0.000000
 Stoichiometry    C3H8NO(1-)
 Framework group  C1[X(C3H8NO)]
 Deg. of freedom    33
 Full point group                 C1      NOp   1
 Largest Abelian subgroup         C1      NOp   1
 Largest concise Abelian subgroup C1      NOp   1
                         Standard orientation:                         
 ---------------------------------------------------------------------
 Center     Atomic      Atomic             Coordinates (Angstroms)
 Number     Number       Type             X           Y           Z
 ---------------------------------------------------------------------
      1          6           0        0.382840   -0.228493    0.224194
      2          8           0        0.176696   -0.237291    1.428176
      3          7           0       -1.487708    0.629539   -0.180786
      4          1           0       -1.611477    1.468527   -0.706649
      5          1           0       -2.373222    0.386291    0.201462
      6          6           0        0.051841   -1.347496   -0.673763
      7          1           0        0.922133   -1.862239   -1.042444
      8          1           0       -0.583792   -2.038453   -0.140416
      9          1           0       -0.514698   -0.941416   -1.502739
     10          6           0        1.114371    1.009376   -0.425744
     11          1           0        2.050243    0.674205   -0.844014
     12          1           0        0.513101    1.451443   -1.206333
     13          1           0        1.303796    1.752870    0.333110
 ---------------------------------------------------------------------
 Rotational constants (GHZ):      4.8323424      4.5320064      4.1430476
 Standard basis: VSTO-6G (5D, 7F)
 There are    28 symmetry adapted cartesian basis functions of A   symmetry.
 There are    28 symmetry adapted basis functions of A   symmetry.
    28 basis functions,   168 primitive gaussians,    28 cartesian basis functions
    16 alpha electrons       16 beta electrons
       nuclear repulsion energy       127.6446582840 Hartrees.
 Integral buffers will be    262144 words long.
 Regular integral format.
 Two-electron integral symmetry is turned off.
 Do NDO integrals.
 One-electron integrals computed using PRISM.
 NBasis=    28 RedAO= F EigKep=  0.00D+00  NBF=    28
 NBsUse=    28 1.00D-04 EigRej=  0.00D+00 NBFU=    28
 Initial guess from the checkpoint file:  "C:\G09W\gxx.chk"
 B after Tr=     0.000000    0.000000    0.000000
         Rot=    0.942905   -0.026205   -0.055360   -0.327381 Ang= -38.91 deg.
 Overlap will be assumed to be unity.
 Keep J ints in memory in canonical form, NReq=886526.
 Requested convergence on RMS density matrix=1.00D-08 within 128 cycles.
 Requested convergence on MAX density matrix=1.00D-06.
 Requested convergence on             energy=1.00D-06.
 No special actions if energy rises.
 SCF Done:  E(RPM6) = -0.342369709998E-01 A.U. after   13 cycles
            NFock= 12  Conv=0.30D-08     -V/T= 0.9981
 Calling FoFJK, ICntrl=      2127 FMM=F ISym2X=0 I1Cent= 0 IOpClX= 0 NMat=1 NMatS=1 NMatT=0.
 ***** Axes restored to original set *****
 -------------------------------------------------------------------
 Center     Atomic                   Forces (Hartrees/Bohr)
 Number     Number              X              Y              Z
 -------------------------------------------------------------------
      1        6          -0.019994604    0.031768001    0.084884950
      2        8           0.000563675    0.013788357   -0.033073546
      3        7          -0.004559528   -0.015439490    0.001175890
      4        1           0.001058124    0.004110113   -0.001509940
      5        1          -0.001899339    0.004784198   -0.005628272
      6        6           0.001499704   -0.020216115   -0.024821358
      7        1          -0.001515479   -0.005050310   -0.006553265
      8        1           0.010320486   -0.001230257    0.000943769
      9        1           0.000879887   -0.009206051    0.008723128
     10        6           0.015463051   -0.004503812   -0.028307381
     11        1          -0.004929362   -0.002101184   -0.002928507
     12        1           0.002046769   -0.001722287    0.004510478
     13        1           0.001066617    0.005018836    0.002584054
 -------------------------------------------------------------------
 Cartesian Forces:  Max     0.084884950 RMS     0.018091343

 GradGradGradGradGradGradGradGradGradGradGradGradGradGradGradGradGradGrad
 Berny optimization.
 FormGI is forming the generalized inverse of G from B-inverse, IUseBI=4.
 Internal  Forces:  Max     0.039465913 RMS     0.007451066
 Search for a saddle point.
 Step number   2 out of a maximum of   76
 All quantities printed in internal units (Hartrees-Bohrs-Radians)
 Swapping is turned off.
 Update second derivatives using D2CorX and points    1    2
 ITU=  0  0
     Eigenvalues ---   -0.02280  -0.00635  -0.00070   0.00004   0.00058
     Eigenvalues ---    0.00695   0.02621   0.02765   0.03600   0.03637
     Eigenvalues ---    0.03778   0.05131   0.06399   0.06647   0.07000
     Eigenvalues ---    0.08509   0.09030   0.09984   0.11747   0.12091
     Eigenvalues ---    0.13371   0.14499   0.19754   0.24826   0.26919
     Eigenvalues ---    0.27765   0.28185   0.28657   0.30077   0.30171
     Eigenvalues ---    0.31158   0.53501   0.79759
 Eigenvectors required to have negative eigenvalues:
                          R2        A23       D9        A8        D7
   1                   -0.71287  -0.19616   0.18515  -0.17829   0.17473
                          D17       D16       D2        D14       D24
   1                   -0.15497  -0.15357   0.14560  -0.14434   0.14158
 RFO step:  Lambda0=1.455067679D-02 Lambda=-1.57379369D-02.
 Linear search not attempted -- option 19 set.
 Maximum step size (   0.300) exceeded in Quadratic search.
    -- Step size scaled by   0.545
 Iteration  1 RMS(Cart)=  0.05974881 RMS(Int)=  0.00452503
 Iteration  2 RMS(Cart)=  0.00259139 RMS(Int)=  0.00321851
 Iteration  3 RMS(Cart)=  0.00000795 RMS(Int)=  0.00321850
 Iteration  4 RMS(Cart)=  0.00000001 RMS(Int)=  0.00321850
 Variable       Old X    -DE/DX   Delta X   Delta X   Delta X     New X
                                 (Linear)    (Quad)   (Total)
    R1        2.30836   0.01614   0.00000  -0.00909  -0.00909   2.29928
    R2        3.96355  -0.00644   0.00000   0.20590   0.20631   4.16986
    R3        2.78249   0.03947   0.00000   0.03798   0.03798   2.82047
    R4        2.98186  -0.01683   0.00000  -0.06831  -0.06929   2.91257
    R5        1.88571  -0.00341   0.00000   0.00048   0.00182   1.88753
    R6        1.87970  -0.00320   0.00000  -0.00301  -0.00301   1.87669
    R7        4.12455  -0.00108   0.00000   0.13709   0.13745   4.26200
    R8        2.03380   0.00826   0.00000   0.00750   0.00750   2.04130
    R9        2.04048   0.00998   0.00000   0.01394   0.01394   2.05442
   R10        2.04673   0.01200   0.00000   0.01964   0.01964   2.06637
   R11        2.03805   0.00552   0.00000   0.00860   0.00860   2.04666
   R12        2.04079   0.00467   0.00000   0.01611   0.01468   2.05547
   R13        2.03926   0.00462   0.00000   0.01402   0.01402   2.05328
    A1        1.61356   0.00799   0.00000   0.02159   0.02266   1.63623
    A2        2.16238   0.00057   0.00000  -0.01730  -0.01739   2.14499
    A3        2.08273   0.00113   0.00000   0.02315   0.02244   2.10517
    A4        1.56346   0.00159   0.00000   0.00244   0.00111   1.56457
    A5        1.58380   0.00439   0.00000  -0.00850  -0.00820   1.57560
    A6        2.03668  -0.00251   0.00000  -0.00682  -0.00619   2.03049
    A7        2.16075   0.00175   0.00000   0.03227   0.02146   2.18221
    A8        2.23916  -0.00596   0.00000   0.04959   0.03457   2.27373
    A9        1.87308   0.00375   0.00000  -0.04086  -0.05527   1.81782
   A10        1.56413  -0.00386   0.00000  -0.06611  -0.06168   1.50245
   A11        1.97209   0.00097   0.00000   0.00391   0.00387   1.97596
   A12        1.89380   0.00238   0.00000   0.00610   0.00606   1.89985
   A13        1.87488   0.00494   0.00000  -0.00409  -0.00410   1.87078
   A14        1.91684  -0.00174   0.00000   0.00837   0.00830   1.92513
   A15        1.91783  -0.00260   0.00000   0.00909   0.00909   1.92692
   A16        1.88605  -0.00401   0.00000  -0.02516  -0.02518   1.86086
   A17        1.89466   0.00413   0.00000   0.03774   0.03765   1.93231
   A18        1.93985  -0.00187   0.00000  -0.03439  -0.03563   1.90421
   A19        1.90946  -0.00260   0.00000  -0.00178  -0.00184   1.90762
   A20        1.90713  -0.00079   0.00000   0.00500   0.00688   1.91400
   A21        1.91189   0.00037   0.00000   0.00800   0.00765   1.91954
   A22        1.90074   0.00079   0.00000  -0.01402  -0.01528   1.88546
   A23        1.96025   0.00079   0.00000   0.05954   0.05590   2.01615
    D1        2.18839  -0.00116   0.00000   0.18576   0.18746   2.37585
    D2       -0.78034   0.00234   0.00000  -0.15560  -0.15665  -0.93699
    D3       -1.93217  -0.00036   0.00000   0.16899   0.17073  -1.76143
    D4        1.38229   0.00314   0.00000  -0.17238  -0.17338   1.20891
    D5        0.10446  -0.00285   0.00000   0.16221   0.16458   0.26904
    D6       -2.86427   0.00065   0.00000  -0.17916  -0.17953  -3.04380
    D7       -1.90803   0.00938   0.00000  -0.01420  -0.01427  -1.92230
    D8        0.22204   0.00950   0.00000   0.00335   0.00332   0.22536
    D9        2.25706   0.00863   0.00000  -0.02523  -0.02527   2.23178
   D10        2.75777  -0.00133   0.00000  -0.04144  -0.04159   2.71618
   D11       -1.39535  -0.00122   0.00000  -0.02389  -0.02400  -1.41936
   D12        0.63967  -0.00208   0.00000  -0.05247  -0.05259   0.58707
   D13        1.17611  -0.00704   0.00000  -0.03316  -0.03300   1.14311
   D14       -2.97701  -0.00693   0.00000  -0.01561  -0.01542  -2.99243
   D15       -0.94199  -0.00779   0.00000  -0.04419  -0.04401  -0.98600
   D16        2.03574  -0.00924   0.00000  -0.09259  -0.09241   1.94333
   D17       -2.14948  -0.00872   0.00000  -0.08325  -0.08242  -2.23190
   D18       -0.04985  -0.01062   0.00000  -0.12368  -0.12387  -0.17373
   D19       -2.62027   0.00246   0.00000  -0.07156  -0.06989  -2.69016
   D20       -0.52231   0.00298   0.00000  -0.06222  -0.05990  -0.58221
   D21        1.57732   0.00108   0.00000  -0.10265  -0.10135   1.47597
   D22       -1.05115   0.00641   0.00000  -0.07319  -0.07278  -1.12393
   D23        1.04681   0.00694   0.00000  -0.06385  -0.06279   0.98402
   D24       -3.13674   0.00503   0.00000  -0.10428  -0.10425   3.04220
   D25        0.13485   0.00250   0.00000  -0.12248  -0.11732   0.01753
   D26        3.13456  -0.00120   0.00000   0.16420   0.15906  -2.98957
   D27       -0.54390   0.00017   0.00000   0.06233   0.06039  -0.48351
   D28        0.66983  -0.00239   0.00000   0.05378   0.05476   0.72459
   D29        2.76040   0.00106   0.00000   0.08237   0.08331   2.84371
   D30       -1.43495   0.00150   0.00000   0.08668   0.08748  -1.34747
         Item               Value     Threshold  Converged?
 Maximum Force            0.039466     0.000450     NO 
 RMS     Force            0.007451     0.000300     NO 
 Maximum Displacement     0.186748     0.001800     NO 
 RMS     Displacement     0.059771     0.001200     NO 
 Predicted change in Energy=-1.471118D-03
 GradGradGradGradGradGradGradGradGradGradGradGradGradGradGradGradGradGrad

                          Input orientation:                          
 ---------------------------------------------------------------------
 Center     Atomic      Atomic             Coordinates (Angstroms)
 Number     Number       Type             X           Y           Z
 ---------------------------------------------------------------------
      1          6           0       -0.297089   -0.242492   -1.074655
      2          8           0        0.269740    0.816293   -1.269851
      3          7           0        0.189559   -0.272070    1.077406
      4          1           0       -0.448662   -0.515190    1.806271
      5          1           0        1.065062   -0.189399    1.538830
      6          6           0        0.376708   -1.564505   -1.235666
      7          1           0        0.017501   -2.124651   -2.086586
      8          1           0        1.449179   -1.404907   -1.314608
      9          1           0        0.211228   -2.126127   -0.312145
     10          6           0       -1.801720   -0.277801   -0.742481
     11          1           0       -2.363851   -0.716042   -1.557920
     12          1           0       -1.952930   -0.862518    0.162144
     13          1           0       -2.151177    0.733188   -0.551771
 ---------------------------------------------------------------------
                    Distance matrix (angstroms):
                    1          2          3          4          5
     1  C    0.000000
     2  O    1.216725   0.000000
     3  N    2.206596   2.588547   0.000000
     4  H    2.897771   3.428042   0.998838   0.000000
     5  H    2.947640   3.087498   0.993103   1.571313   0.000000
     6  C    1.492530   2.383445   2.656260   3.322000   3.172157
     7  H    2.159975   3.062651   3.670491   4.238161   4.241018
     8  H    2.111453   2.515314   2.931159   3.759426   3.125239
     9  H    2.094729   3.094908   2.317077   2.741944   2.811771
    10  C    1.541266   2.401272   2.697631   2.895386   3.664784
    11  H    2.174696   3.060528   3.696208   3.876348   4.650232
    12  H    2.157757   3.131976   2.403454   2.255352   3.384765
    13  H    2.159399   2.526536   3.023873   3.165023   3.945374
                    6          7          8          9         10
     6  C    0.000000
     7  H    1.080212   0.000000
     8  H    1.087151   1.778675   0.000000
     9  H    1.093478   1.784986   1.748603   0.000000
    10  C    2.577671   2.920109   3.487985   2.766489   0.000000
    11  H    2.886936   2.816825   3.882387   3.189252   1.083045
    12  H    2.806042   3.245360   3.748243   2.550536   1.087706
    13  H    3.483864   3.902059   4.256281   3.716727   1.086549
                   11         12         13
    11  H    0.000000
    12  H    1.774522   0.000000
    13  H    1.777029   1.759334   0.000000
 Stoichiometry    C3H8NO(1-)
 Framework group  C1[X(C3H8NO)]
 Deg. of freedom    33
 Full point group                 C1      NOp   1
 Largest Abelian subgroup         C1      NOp   1
 Largest concise Abelian subgroup C1      NOp   1
                         Standard orientation:                         
 ---------------------------------------------------------------------
 Center     Atomic      Atomic             Coordinates (Angstroms)
 Number     Number       Type             X           Y           Z
 ---------------------------------------------------------------------
      1          6           0        0.476028   -0.093558    0.197104
      2          8           0        0.412887   -0.167986    1.409908
      3          7           0       -1.695408    0.217835   -0.041578
      4          1           0       -2.114801    0.889845   -0.650011
      5          1           0       -2.461461   -0.318507    0.292718
      6          6           0        0.393207   -1.288150   -0.693816
      7          1           0        1.329130   -1.522843   -1.179433
      8          1           0        0.047298   -2.137985   -0.110701
      9          1           0       -0.381473   -1.083260   -1.437849
     10          6           0        0.753003    1.256386   -0.493140
     11          1           0        1.732038    1.256071   -0.956257
     12          1           0       -0.009265    1.432873   -1.248722
     13          1           0        0.689865    2.054775    0.241148
 ---------------------------------------------------------------------
 Rotational constants (GHZ):      4.8575834      4.2965913      3.9625625
 Standard basis: VSTO-6G (5D, 7F)
 There are    28 symmetry adapted cartesian basis functions of A   symmetry.
 There are    28 symmetry adapted basis functions of A   symmetry.
    28 basis functions,   168 primitive gaussians,    28 cartesian basis functions
    16 alpha electrons       16 beta electrons
       nuclear repulsion energy       126.8384048786 Hartrees.
 Integral buffers will be    262144 words long.
 Regular integral format.
 Two-electron integral symmetry is turned off.
 Do NDO integrals.
 One-electron integrals computed using PRISM.
 NBasis=    28 RedAO= F EigKep=  0.00D+00  NBF=    28
 NBsUse=    28 1.00D-04 EigRej=  0.00D+00 NBFU=    28
 Initial guess from the checkpoint file:  "C:\G09W\gxx.chk"
 B after Tr=     0.000000    0.000000    0.000000
         Rot=    0.988543    0.000060   -0.042900   -0.144715 Ang=  17.36 deg.
 Overlap will be assumed to be unity.
 Keep J ints in memory in canonical form, NReq=886526.
 Requested convergence on RMS density matrix=1.00D-08 within 128 cycles.
 Requested convergence on MAX density matrix=1.00D-06.
 Requested convergence on             energy=1.00D-06.
 No special actions if energy rises.
 SCF Done:  E(RPM6) = -0.352991386592E-01 A.U. after   13 cycles
            NFock= 12  Conv=0.52D-08     -V/T= 0.9981
 Calling FoFJK, ICntrl=      2127 FMM=F ISym2X=0 I1Cent= 0 IOpClX= 0 NMat=1 NMatS=1 NMatT=0.
 ***** Axes restored to original set *****
 -------------------------------------------------------------------
 Center     Atomic                   Forces (Hartrees/Bohr)
 Number     Number              X              Y              Z
 -------------------------------------------------------------------
      1        6          -0.004986046    0.016013596    0.057940786
      2        8           0.001495436    0.010462560   -0.024534462
      3        7          -0.005338761   -0.007157629    0.002798320
      4        1          -0.001989095    0.001002788   -0.001926224
      5        1           0.002975379    0.002742038   -0.005598050
      6        6           0.000697926   -0.012280223   -0.015070845
      7        1          -0.000804411   -0.002710177   -0.003075780
      8        1           0.005091785   -0.000586446    0.000040948
      9        1           0.000835980   -0.004674981    0.004117000
     10        6           0.004683818   -0.003758428   -0.018725764
     11        1          -0.002582569   -0.000701420   -0.001204224
     12        1          -0.000529216   -0.000944966    0.003282874
     13        1           0.000449774    0.002593289    0.001955419
 -------------------------------------------------------------------
 Cartesian Forces:  Max     0.057940786 RMS     0.011740463

 GradGradGradGradGradGradGradGradGradGradGradGradGradGradGradGradGradGrad
 Berny optimization.
 FormGI is forming the generalized inverse of G from B-inverse, IUseBI=4.
 Internal  Forces:  Max     0.022075186 RMS     0.004600599
 Search for a saddle point.
 Step number   3 out of a maximum of   76
 All quantities printed in internal units (Hartrees-Bohrs-Radians)
 Swapping is turned off.
 Update second derivatives using D2CorX and points    2    3
 ITU=  0  0  0
     Eigenvalues ---   -0.02061  -0.00455  -0.00115   0.00010   0.00057
     Eigenvalues ---    0.00693   0.02567   0.02722   0.03586   0.03636
     Eigenvalues ---    0.03775   0.05107   0.06396   0.06600   0.06988
     Eigenvalues ---    0.08062   0.09016   0.09949   0.11736   0.12070
     Eigenvalues ---    0.13368   0.14499   0.19793   0.24794   0.26918
     Eigenvalues ---    0.27729   0.28185   0.28656   0.30066   0.30173
     Eigenvalues ---    0.31169   0.53476   0.79841
 Eigenvectors required to have negative eigenvalues:
                          R2        A23       D9        D7        D17
   1                    0.74514   0.19788  -0.18796  -0.17792   0.17764
                          D16       D18       D14       A8        D8
   1                    0.17469   0.15217   0.15020   0.14697  -0.14307
 RFO step:  Lambda0=1.022997932D-02 Lambda=-8.22838758D-03.
 Linear search not attempted -- option 19 set.
 Maximum step size (   0.300) exceeded in Quadratic search.
    -- Step size scaled by   0.547
 Iteration  1 RMS(Cart)=  0.05477431 RMS(Int)=  0.00676840
 Iteration  2 RMS(Cart)=  0.00646873 RMS(Int)=  0.00289779
 Iteration  3 RMS(Cart)=  0.00002329 RMS(Int)=  0.00289772
 Iteration  4 RMS(Cart)=  0.00000007 RMS(Int)=  0.00289772
 Variable       Old X    -DE/DX   Delta X   Delta X   Delta X     New X
                                 (Linear)    (Quad)   (Total)
    R1        2.29928   0.01374   0.00000  -0.00779  -0.00779   2.29149
    R2        4.16986  -0.00495   0.00000   0.24734   0.24778   4.41765
    R3        2.82047   0.02208   0.00000   0.02150   0.02150   2.84198
    R4        2.91257  -0.00480   0.00000  -0.01927  -0.01931   2.89327
    R5        1.88753  -0.00027   0.00000   0.00427   0.00542   1.89295
    R6        1.87669   0.00025   0.00000   0.00590   0.00590   1.88260
    R7        4.26200  -0.00062   0.00000   0.12954   0.12944   4.39144
    R8        2.04130   0.00410   0.00000   0.00333   0.00333   2.04464
    R9        2.05442   0.00493   0.00000   0.00727   0.00727   2.06169
   R10        2.06637   0.00575   0.00000   0.01255   0.01255   2.07893
   R11        2.04666   0.00253   0.00000   0.00122   0.00122   2.04788
   R12        2.05547   0.00295   0.00000   0.01053   0.00879   2.06425
   R13        2.05328   0.00261   0.00000   0.00923   0.00923   2.06251
    A1        1.63623   0.00568   0.00000   0.01819   0.01894   1.65516
    A2        2.14499  -0.00015   0.00000  -0.01045  -0.01047   2.13452
    A3        2.10517   0.00076   0.00000   0.01278   0.01158   2.11675
    A4        1.56457   0.00213   0.00000  -0.00147  -0.00226   1.56231
    A5        1.57560   0.00204   0.00000  -0.02312  -0.02299   1.55261
    A6        2.03049  -0.00138   0.00000  -0.00196  -0.00075   2.02974
    A7        2.18221   0.00097   0.00000  -0.00112  -0.01171   2.17050
    A8        2.27373  -0.00655   0.00000  -0.01700  -0.02889   2.24484
    A9        1.81782   0.00569   0.00000  -0.01915  -0.03368   1.78414
   A10        1.50245  -0.00098   0.00000  -0.03420  -0.03143   1.47102
   A11        1.97596   0.00030   0.00000   0.00291   0.00289   1.97884
   A12        1.89985   0.00118   0.00000   0.00643   0.00640   1.90625
   A13        1.87078   0.00327   0.00000  -0.00617  -0.00616   1.86461
   A14        1.92513  -0.00100   0.00000   0.00595   0.00590   1.93103
   A15        1.92692  -0.00167   0.00000   0.00589   0.00589   1.93281
   A16        1.86086  -0.00210   0.00000  -0.01653  -0.01653   1.84433
   A17        1.93231   0.00249   0.00000   0.02203   0.02224   1.95455
   A18        1.90421  -0.00042   0.00000  -0.02025  -0.02158   1.88263
   A19        1.90762  -0.00171   0.00000  -0.00570  -0.00575   1.90186
   A20        1.91400  -0.00071   0.00000   0.01019   0.01140   1.92540
   A21        1.91954   0.00022   0.00000   0.01057   0.01043   1.92997
   A22        1.88546   0.00006   0.00000  -0.01813  -0.01880   1.86666
   A23        2.01615  -0.00038   0.00000   0.05332   0.05070   2.06685
    D1        2.37585  -0.00019   0.00000   0.18792   0.18727   2.56311
    D2       -0.93699   0.00136   0.00000  -0.14985  -0.14797  -1.08496
    D3       -1.76143   0.00001   0.00000   0.17798   0.17731  -1.58412
    D4        1.20891   0.00157   0.00000  -0.15979  -0.15792   1.05099
    D5        0.26904  -0.00137   0.00000   0.17612   0.17686   0.44590
    D6       -3.04380   0.00018   0.00000  -0.16165  -0.15838   3.08101
    D7       -1.92230   0.00676   0.00000  -0.04686  -0.04678  -1.96908
    D8        0.22536   0.00654   0.00000  -0.03248  -0.03237   0.19298
    D9        2.23178   0.00637   0.00000  -0.05180  -0.05171   2.18008
   D10        2.71618  -0.00139   0.00000  -0.06715  -0.06734   2.64884
   D11       -1.41936  -0.00160   0.00000  -0.05277  -0.05293  -1.47228
   D12        0.58707  -0.00177   0.00000  -0.07209  -0.07226   0.51481
   D13        1.14311  -0.00473   0.00000  -0.04064  -0.04057   1.10253
   D14       -2.99243  -0.00495   0.00000  -0.02626  -0.02617  -3.01859
   D15       -0.98600  -0.00511   0.00000  -0.04558  -0.04550  -1.03150
   D16        1.94333  -0.00666   0.00000  -0.06973  -0.06950   1.87382
   D17       -2.23190  -0.00624   0.00000  -0.05633  -0.05560  -2.28751
   D18       -0.17373  -0.00740   0.00000  -0.09325  -0.09324  -0.26697
   D19       -2.69016   0.00120   0.00000  -0.06165  -0.06073  -2.75089
   D20       -0.58221   0.00161   0.00000  -0.04825  -0.04683  -0.62903
   D21        1.47597   0.00046   0.00000  -0.08517  -0.08446   1.39150
   D22       -1.12393   0.00459   0.00000  -0.07473  -0.07462  -1.19856
   D23        0.98402   0.00500   0.00000  -0.06134  -0.06072   0.92330
   D24        3.04220   0.00384   0.00000  -0.09825  -0.09836   2.94384
   D25        0.01753   0.00109   0.00000  -0.12928  -0.12421  -0.10668
   D26       -2.98957   0.00082   0.00000   0.13629   0.13955  -2.85002
   D27       -0.48351   0.00066   0.00000   0.08612   0.08770  -0.39581
   D28        0.72459  -0.00205   0.00000   0.03739   0.03775   0.76234
   D29        2.84371   0.00031   0.00000   0.05812   0.05848   2.90218
   D30       -1.34747   0.00020   0.00000   0.06597   0.06631  -1.28116
         Item               Value     Threshold  Converged?
 Maximum Force            0.022075     0.000450     NO 
 RMS     Force            0.004601     0.000300     NO 
 Maximum Displacement     0.171519     0.001800     NO 
 RMS     Displacement     0.058184     0.001200     NO 
 Predicted change in Energy= 3.111645D-04
 GradGradGradGradGradGradGradGradGradGradGradGradGradGradGradGradGradGrad

                          Input orientation:                          
 ---------------------------------------------------------------------
 Center     Atomic      Atomic             Coordinates (Angstroms)
 Number     Number       Type             X           Y           Z
 ---------------------------------------------------------------------
      1          6           0       -0.313383   -0.233048   -1.125323
      2          8           0        0.251004    0.814095   -1.360614
      3          7           0        0.173094   -0.209608    1.161097
      4          1           0       -0.428944   -0.579689    1.871033
      5          1           0        1.063401   -0.230418    1.607625
      6          6           0        0.377872   -1.563241   -1.245711
      7          1           0       -0.009522   -2.177375   -2.047854
      8          1           0        1.449728   -1.401164   -1.368720
      9          1           0        0.263360   -2.070691   -0.276355
     10          6           0       -1.804287   -0.272301   -0.779229
     11          1           0       -2.398767   -0.675000   -1.590901
     12          1           0       -1.924048   -0.883543    0.118147
     13          1           0       -2.135959    0.735763   -0.524229
 ---------------------------------------------------------------------
                    Distance matrix (angstroms):
                    1          2          3          4          5
     1  C    0.000000
     2  O    1.212602   0.000000
     3  N    2.337717   2.722694   0.000000
     4  H    3.018553   3.584482   1.001709   0.000000
     5  H    3.060154   3.249837   0.996227   1.555143   0.000000
     6  C    1.503909   2.383490   2.768931   3.366366   3.223025
     7  H    2.173432   3.080433   3.768663   4.252786   4.278356
     8  H    2.128920   2.518805   3.074016   3.834089   3.221572
     9  H    2.104830   3.081844   2.353305   2.704376   2.752463
    10  C    1.531050   2.396348   2.771070   3.001657   3.731281
    11  H    2.181951   3.048233   3.795332   3.984253   4.734430
    12  H    2.136259   3.130426   2.437199   2.323849   3.401466
    13  H    2.149812   2.530469   3.010942   3.222048   3.964116
                    6          7          8          9         10
     6  C    0.000000
     7  H    1.081974   0.000000
     8  H    1.090998   1.786935   0.000000
     9  H    1.100122   1.795565   1.746138   0.000000
    10  C    2.577974   2.908590   3.494345   2.786082   0.000000
    11  H    2.935619   2.859097   3.922703   3.280687   1.083690
    12  H    2.760604   3.167171   3.723047   2.519863   1.092357
    13  H    3.482140   3.915296   4.258730   3.700589   1.091432
                   11         12         13
    11  H    0.000000
    12  H    1.785971   0.000000
    13  H    1.788045   1.754909   0.000000
 Stoichiometry    C3H8NO(1-)
 Framework group  C1[X(C3H8NO)]
 Deg. of freedom    33
 Full point group                 C1      NOp   1
 Largest Abelian subgroup         C1      NOp   1
 Largest concise Abelian subgroup C1      NOp   1
                         Standard orientation:                         
 ---------------------------------------------------------------------
 Center     Atomic      Atomic             Coordinates (Angstroms)
 Number     Number       Type             X           Y           Z
 ---------------------------------------------------------------------
      1          6           0        0.527775   -0.048917    0.175591
      2          8           0        0.566976   -0.133078    1.384634
      3          7           0       -1.801779    0.111738    0.064737
      4          1           0       -2.299688    0.644914   -0.621726
      5          1           0       -2.485296   -0.553988    0.351236
      6          6           0        0.473656   -1.261038   -0.712989
      7          1           0        1.366940   -1.397380   -1.308073
      8          1           0        0.278978   -2.144745   -0.103531
      9          1           0       -0.409988   -1.144184   -1.357804
     10          6           0        0.626868    1.305909   -0.530625
     11          1           0        1.584203    1.438932   -1.020727
     12          1           0       -0.184031    1.363631   -1.260252
     13          1           0        0.455732    2.099562    0.198793
 ---------------------------------------------------------------------
 Rotational constants (GHZ):      4.8610436      4.0486324      3.7442115
 Standard basis: VSTO-6G (5D, 7F)
 There are    28 symmetry adapted cartesian basis functions of A   symmetry.
 There are    28 symmetry adapted basis functions of A   symmetry.
    28 basis functions,   168 primitive gaussians,    28 cartesian basis functions
    16 alpha electrons       16 beta electrons
       nuclear repulsion energy       125.8935347484 Hartrees.
 Integral buffers will be    262144 words long.
 Regular integral format.
 Two-electron integral symmetry is turned off.
 Do NDO integrals.
 One-electron integrals computed using PRISM.
 NBasis=    28 RedAO= F EigKep=  0.00D+00  NBF=    28
 NBsUse=    28 1.00D-04 EigRej=  0.00D+00 NBFU=    28
 Initial guess from the checkpoint file:  "C:\G09W\gxx.chk"
 B after Tr=     0.000000    0.000000    0.000000
         Rot=    0.998611    0.001422   -0.030756   -0.042760 Ang=   6.04 deg.
 Overlap will be assumed to be unity.
 Keep J ints in memory in canonical form, NReq=886526.
 Requested convergence on RMS density matrix=1.00D-08 within 128 cycles.
 Requested convergence on MAX density matrix=1.00D-06.
 Requested convergence on             energy=1.00D-06.
 No special actions if energy rises.
 SCF Done:  E(RPM6) = -0.344847863558E-01 A.U. after   13 cycles
            NFock= 12  Conv=0.41D-08     -V/T= 0.9981
 Calling FoFJK, ICntrl=      2127 FMM=F ISym2X=0 I1Cent= 0 IOpClX= 0 NMat=1 NMatS=1 NMatT=0.
 ***** Axes restored to original set *****
 -------------------------------------------------------------------
 Center     Atomic                   Forces (Hartrees/Bohr)
 Number     Number              X              Y              Z
 -------------------------------------------------------------------
      1        6          -0.002699136    0.006553254    0.041650222
      2        8           0.002255122    0.009281548   -0.019181651
      3        7          -0.004514945   -0.004612123    0.003776938
      4        1          -0.002876800    0.000098611   -0.002292130
      5        1           0.003743847    0.002095597   -0.005447897
      6        6          -0.000005738   -0.006751206   -0.008629212
      7        1          -0.000495811   -0.001452074   -0.001243090
      8        1           0.002283165   -0.000281877   -0.000697521
      9        1           0.000384757   -0.002320097    0.001685650
     10        6           0.004536783   -0.003053338   -0.012623223
     11        1          -0.001194535   -0.000098347   -0.000486998
     12        1          -0.001683778   -0.000633589    0.002491721
     13        1           0.000267069    0.001173639    0.000997191
 -------------------------------------------------------------------
 Cartesian Forces:  Max     0.041650222 RMS     0.008324500

 GradGradGradGradGradGradGradGradGradGradGradGradGradGradGradGradGradGrad
 Berny optimization.
 FormGI is forming the generalized inverse of G from B-inverse, IUseBI=4.
 Internal  Forces:  Max     0.012786682 RMS     0.003226327
 Search for a saddle point.
 Step number   4 out of a maximum of   76
 All quantities printed in internal units (Hartrees-Bohrs-Radians)
 Swapping is turned off.
 Update second derivatives using D2CorX and points    3    4
 ITU=  0  0  0  0
     Eigenvalues ---   -0.01823  -0.00214  -0.00090   0.00031   0.00064
     Eigenvalues ---    0.00678   0.02441   0.02678   0.03572   0.03636
     Eigenvalues ---    0.03767   0.05049   0.06347   0.06556   0.06970
     Eigenvalues ---    0.07412   0.09004   0.09904   0.11723   0.12053
     Eigenvalues ---    0.13362   0.14489   0.19737   0.24744   0.26917
     Eigenvalues ---    0.27665   0.28185   0.28655   0.30045   0.30147
     Eigenvalues ---    0.31145   0.53482   0.79959
 Eigenvectors required to have negative eigenvalues:
                          R2        A23       D17       D16       D9
   1                    0.75787   0.20104   0.19924   0.19675  -0.18626
                          D7        D18       D14       D8        A8
   1                   -0.17637   0.17550   0.15717  -0.14105   0.13868
 RFO step:  Lambda0=7.164706399D-03 Lambda=-4.47843027D-03.
 Linear search not attempted -- option 19 set.
 Maximum step size (   0.300) exceeded in Quadratic search.
    -- Step size scaled by   0.519
 Iteration  1 RMS(Cart)=  0.05217598 RMS(Int)=  0.00821272
 Iteration  2 RMS(Cart)=  0.00880904 RMS(Int)=  0.00330027
 Iteration  3 RMS(Cart)=  0.00003734 RMS(Int)=  0.00330009
 Iteration  4 RMS(Cart)=  0.00000013 RMS(Int)=  0.00330009
 Variable       Old X    -DE/DX   Delta X   Delta X   Delta X     New X
                                 (Linear)    (Quad)   (Total)
    R1        2.29149   0.01279   0.00000  -0.00451  -0.00451   2.28697
    R2        4.41765  -0.00364   0.00000   0.25533   0.25650   4.67415
    R3        2.84198   0.01126   0.00000   0.00835   0.00835   2.85033
    R4        2.89327  -0.00388   0.00000  -0.03410  -0.03331   2.85996
    R5        1.89295   0.00058   0.00000   0.00311   0.00363   1.89659
    R6        1.88260   0.00086   0.00000   0.00506   0.00506   1.88765
    R7        4.39144  -0.00094   0.00000   0.02955   0.02815   4.41959
    R8        2.04464   0.00192   0.00000   0.00153   0.00153   2.04617
    R9        2.06169   0.00228   0.00000   0.00325   0.00325   2.06493
   R10        2.07893   0.00252   0.00000   0.00696   0.00696   2.08589
   R11        2.04788   0.00106   0.00000   0.00138   0.00138   2.04926
   R12        2.06425   0.00180   0.00000   0.00774   0.00650   2.07076
   R13        2.06251   0.00124   0.00000   0.00697   0.00697   2.06948
    A1        1.65516   0.00447   0.00000   0.01297   0.01232   1.66748
    A2        2.13452  -0.00007   0.00000  -0.00951  -0.00957   2.12495
    A3        2.11675   0.00059   0.00000   0.00650   0.00588   2.12263
    A4        1.56231   0.00155   0.00000  -0.01227  -0.00986   1.55245
    A5        1.55261   0.00112   0.00000  -0.01985  -0.02182   1.53078
    A6        2.02974  -0.00104   0.00000   0.00431   0.00482   2.03456
    A7        2.17050   0.00039   0.00000  -0.02688  -0.03776   2.13274
    A8        2.24484  -0.00613   0.00000  -0.05144  -0.05970   2.18514
    A9        1.78414   0.00568   0.00000  -0.02688  -0.04192   1.74222
   A10        1.47102  -0.00026   0.00000  -0.02204  -0.02527   1.44574
   A11        1.97884  -0.00002   0.00000   0.00183   0.00182   1.98067
   A12        1.90625   0.00060   0.00000   0.00613   0.00613   1.91238
   A13        1.86461   0.00200   0.00000  -0.00653  -0.00653   1.85809
   A14        1.93103  -0.00064   0.00000   0.00124   0.00121   1.93225
   A15        1.93281  -0.00108   0.00000   0.00303   0.00304   1.93585
   A16        1.84433  -0.00083   0.00000  -0.00647  -0.00646   1.83787
   A17        1.95455   0.00128   0.00000   0.01895   0.02130   1.97585
   A18        1.88263   0.00086   0.00000  -0.00184  -0.00639   1.87625
   A19        1.90186  -0.00142   0.00000  -0.00033  -0.00093   1.90094
   A20        1.92540  -0.00090   0.00000  -0.00018   0.00009   1.92549
   A21        1.92997   0.00018   0.00000   0.00237   0.00187   1.93184
   A22        1.86666  -0.00004   0.00000  -0.02091  -0.01839   1.84827
   A23        2.06685  -0.00085   0.00000   0.11587   0.11319   2.18004
    D1        2.56311  -0.00016   0.00000   0.17937   0.17653   2.73965
    D2       -1.08496   0.00122   0.00000  -0.12854  -0.12512  -1.21008
    D3       -1.58412   0.00012   0.00000   0.16922   0.16645  -1.41767
    D4        1.05099   0.00150   0.00000  -0.13869  -0.13520   0.91579
    D5        0.44590  -0.00098   0.00000   0.17420   0.17230   0.61820
    D6        3.08101   0.00040   0.00000  -0.13371  -0.12935   2.95166
    D7       -1.96908   0.00490   0.00000  -0.03824  -0.03809  -2.00718
    D8        0.19298   0.00452   0.00000  -0.03070  -0.03053   0.16245
    D9        2.18008   0.00488   0.00000  -0.03863  -0.03848   2.14160
   D10        2.64884  -0.00137   0.00000  -0.04533  -0.04599   2.60285
   D11       -1.47228  -0.00175   0.00000  -0.03779  -0.03843  -1.51072
   D12        0.51481  -0.00140   0.00000  -0.04572  -0.04637   0.46844
   D13        1.10253  -0.00341   0.00000  -0.01703  -0.01654   1.08599
   D14       -3.01859  -0.00379   0.00000  -0.00949  -0.00898  -3.02757
   D15       -1.03150  -0.00344   0.00000  -0.01742  -0.01692  -1.04842
   D16        1.87382  -0.00519   0.00000   0.04842   0.04906   1.92289
   D17       -2.28751  -0.00494   0.00000   0.05883   0.05828  -2.22923
   D18       -0.26697  -0.00528   0.00000   0.03300   0.03283  -0.23414
   D19       -2.75089   0.00074   0.00000   0.05176   0.05031  -2.70058
   D20       -0.62903   0.00099   0.00000   0.06217   0.05953  -0.56951
   D21        1.39150   0.00066   0.00000   0.03634   0.03407   1.42558
   D22       -1.19856   0.00306   0.00000   0.02814   0.02821  -1.17034
   D23        0.92330   0.00330   0.00000   0.03855   0.03743   0.96073
   D24        2.94384   0.00297   0.00000   0.01271   0.01197   2.95581
   D25       -0.10668   0.00060   0.00000  -0.15857  -0.14934  -0.25602
   D26       -2.85002   0.00213   0.00000   0.08980   0.09539  -2.75463
   D27       -0.39581   0.00110   0.00000   0.20689   0.21171  -0.18411
   D28        0.76234  -0.00176   0.00000  -0.08931  -0.09214   0.67020
   D29        2.90218  -0.00019   0.00000  -0.06723  -0.06993   2.83225
   D30       -1.28116  -0.00052   0.00000  -0.07716  -0.07864  -1.35981
         Item               Value     Threshold  Converged?
 Maximum Force            0.012787     0.000450     NO 
 RMS     Force            0.003226     0.000300     NO 
 Maximum Displacement     0.174762     0.001800     NO 
 RMS     Displacement     0.055905     0.001200     NO 
 Predicted change in Energy= 7.426654D-04
 GradGradGradGradGradGradGradGradGradGradGradGradGradGradGradGradGradGrad

                          Input orientation:                          
 ---------------------------------------------------------------------
 Center     Atomic      Atomic             Coordinates (Angstroms)
 Number     Number       Type             X           Y           Z
 ---------------------------------------------------------------------
      1          6           0       -0.331715   -0.223488   -1.170186
      2          8           0        0.231475    0.816882   -1.425268
      3          7           0        0.158943   -0.172582    1.253577
      4          1           0       -0.398098   -0.672024    1.922561
      5          1           0        1.063104   -0.293316    1.660667
      6          6           0        0.377201   -1.551967   -1.257560
      7          1           0       -0.020995   -2.203878   -2.024942
      8          1           0        1.446895   -1.386867   -1.407643
      9          1           0        0.291465   -2.018385   -0.260820
     10          6           0       -1.801157   -0.262673   -0.810111
     11          1           0       -2.417158   -0.718428   -1.577441
     12          1           0       -1.895097   -0.815368    0.131419
     13          1           0       -2.141314    0.755873   -0.595285
 ---------------------------------------------------------------------
                    Distance matrix (angstroms):
                    1          2          3          4          5
     1  C    0.000000
     2  O    1.210215   0.000000
     3  N    2.473452   2.856661   0.000000
     4  H    3.125808   3.717683   1.003632   0.000000
     5  H    3.156600   3.383362   0.998902   1.532031   0.000000
     6  C    1.508328   2.379245   2.873352   3.389478   3.251264
     7  H    2.179242   3.090039   3.860988   4.251066   4.290598
     8  H    2.138525   2.516757   3.196154   3.873662   3.279890
     9  H    2.106408   3.065661   2.391224   2.656189   2.695070
    10  C    1.513423   2.382321   2.847616   3.098974   3.782813
    11  H    2.181718   3.065223   3.866382   4.040888   4.772660
    12  H    2.118646   3.099972   2.427240   2.338748   3.370770
    13  H    2.136424   2.514502   3.093784   3.378941   4.056896
                    6          7          8          9         10
     6  C    0.000000
     7  H    1.082784   0.000000
     8  H    1.092716   1.789767   0.000000
     9  H    1.103806   1.801156   1.746149   0.000000
    10  C    2.570552   2.900529   3.488653   2.786272   0.000000
    11  H    2.933523   2.854543   3.925118   3.280247   1.084419
    12  H    2.763184   3.176494   3.723471   2.526293   1.095799
    13  H    3.479606   3.911495   4.257524   3.704968   1.095122
                   11         12         13
    11  H    0.000000
    12  H    1.789455   0.000000
    13  H    1.792843   1.748576   0.000000
 Stoichiometry    C3H8NO(1-)
 Framework group  C1[X(C3H8NO)]
 Deg. of freedom    33
 Full point group                 C1      NOp   1
 Largest Abelian subgroup         C1      NOp   1
 Largest concise Abelian subgroup C1      NOp   1
                         Standard orientation:                         
 ---------------------------------------------------------------------
 Center     Atomic      Atomic             Coordinates (Angstroms)
 Number     Number       Type             X           Y           Z
 ---------------------------------------------------------------------
      1          6           0        0.573403   -0.028782    0.155738
      2          8           0        0.679249   -0.100018    1.359209
      3          7           0       -1.896736    0.098253    0.140399
      4          1           0       -2.406836    0.499373   -0.625224
      5          1           0       -2.513248   -0.649373    0.382832
      6          6           0        0.487620   -1.262402   -0.707903
[...]
   D19       -3.00242   0.00000   0.00000  -0.00061  -0.00061  -3.00303
   D20       -0.90358   0.00000   0.00000  -0.00058  -0.00058  -0.90416
   D21        1.21993   0.00000   0.00000  -0.00063  -0.00063   1.21930
   D22       -1.37712   0.00000   0.00000  -0.00060  -0.00060  -1.37773
   D23        0.72172   0.00000   0.00000  -0.00057  -0.00057   0.72114
   D24        2.84523   0.00000   0.00000  -0.00063  -0.00063   2.84460
   D25        0.31435   0.00000   0.00000   0.00052   0.00052   0.31487
   D26        2.58684   0.00000   0.00000   0.00009   0.00009   2.58693
   D27       -0.84618   0.00000   0.00000  -0.00088  -0.00088  -0.84705
   D28        0.85774   0.00001   0.00000   0.00060   0.00060   0.85834
   D29        2.94171   0.00001   0.00000   0.00068   0.00068   2.94239
   D30       -1.25895   0.00001   0.00000   0.00070   0.00070  -1.25825
         Item               Value     Threshold  Converged?
 Maximum Force            0.000049     0.000450     YES
 RMS     Force            0.000008     0.000300     YES
 Maximum Displacement     0.001287     0.001800     YES
 RMS     Displacement     0.000373     0.001200     YES
 Predicted change in Energy=-1.383177D-08
 Optimization completed.
    -- Stationary point found.
                           ----------------------------
                           !   Optimized Parameters   !
                           ! (Angstroms and Degrees)  !
 --------------------------                            --------------------------
 ! Name  Definition              Value          Derivative Info.                !
 --------------------------------------------------------------------------------
 ! R1    R(1,2)                  1.2618         -DE/DX =    0.0                 !
 ! R2    R(1,3)                  1.8641         -DE/DX =    0.0                 !
 ! R3    R(1,6)                  1.4714         -DE/DX =    0.0                 !
 ! R4    R(1,10)                 1.5606         -DE/DX =    0.0                 !
 ! R5    R(3,4)                  0.9986         -DE/DX =    0.0                 !
 ! R6    R(3,5)                  1.0029         -DE/DX =    0.0                 !
 ! R7    R(4,12)                 2.6206         -DE/DX =    0.0                 !
 ! R8    R(6,7)                  1.0581         -DE/DX =    0.0                 !
 ! R9    R(6,8)                  1.0625         -DE/DX =    0.0                 !
 ! R10   R(6,9)                  1.4954         -DE/DX =    0.0                 !
 ! R11   R(10,11)                1.0883         -DE/DX =    0.0                 !
 ! R12   R(10,12)                1.085          -DE/DX =    0.0                 !
 ! R13   R(10,13)                1.088          -DE/DX =    0.0                 !
 ! A1    A(2,1,3)              103.9862         -DE/DX =    0.0                 !
 ! A2    A(2,1,6)              124.2988         -DE/DX =    0.0                 !
 ! A3    A(2,1,10)             114.7617         -DE/DX =    0.0                 !
 ! A4    A(3,1,6)               87.6403         -DE/DX =    0.0                 !
 ! A5    A(3,1,10)             101.9677         -DE/DX =    0.0                 !
 ! A6    A(6,1,10)             115.5012         -DE/DX =    0.0                 !
 ! A7    A(1,3,4)              121.944          -DE/DX =    0.0                 !
 ! A8    A(1,3,5)              110.2576         -DE/DX =    0.0                 !
 ! A9    A(4,3,5)              108.9509         -DE/DX =    0.0                 !
 ! A10   A(3,4,12)              86.8236         -DE/DX =    0.0                 !
 ! A11   A(1,6,7)              119.7771         -DE/DX =    0.0                 !
 ! A12   A(1,6,8)              116.6325         -DE/DX =    0.0                 !
 ! A13   A(1,6,9)               83.0741         -DE/DX =    0.0                 !
 ! A14   A(7,6,8)              115.133          -DE/DX =    0.0                 !
 ! A15   A(7,6,9)              108.3116         -DE/DX =    0.0                 !
 ! A16   A(8,6,9)              107.6331         -DE/DX =    0.0                 !
 ! A17   A(1,10,11)            107.9465         -DE/DX =    0.0                 !
 ! A18   A(1,10,12)            111.626          -DE/DX =    0.0                 !
 ! A19   A(1,10,13)            109.1895         -DE/DX =    0.0                 !
 ! A20   A(11,10,12)           109.392          -DE/DX =    0.0                 !
 ! A21   A(11,10,13)           108.7596         -DE/DX =    0.0                 !
 ! A22   A(12,10,13)           109.8641         -DE/DX =    0.0                 !
 ! A23   A(4,12,10)             87.9189         -DE/DX =    0.0                 !
 ! D1    D(2,1,3,4)            119.1372         -DE/DX =    0.0                 !
 ! D2    D(2,1,3,5)            -10.5107         -DE/DX =    0.0                 !
 ! D3    D(6,1,3,4)           -116.0461         -DE/DX =    0.0                 !
 ! D4    D(6,1,3,5)            114.3061         -DE/DX =    0.0                 !
 ! D5    D(10,1,3,4)            -0.4684         -DE/DX =    0.0                 !
 ! D6    D(10,1,3,5)          -130.1163         -DE/DX =    0.0                 !
 ! D7    D(2,1,6,7)           -148.3914         -DE/DX =    0.0                 !
 ! D8    D(2,1,6,8)             -1.8442         -DE/DX =    0.0                 !
 ! D9    D(2,1,6,9)            104.4429         -DE/DX =    0.0                 !
 ! D10   D(3,1,6,7)            106.2595         -DE/DX =    0.0                 !
 ! D11   D(3,1,6,8)           -107.1933         -DE/DX =    0.0                 !
 ! D12   D(3,1,6,9)             -0.9062         -DE/DX =    0.0                 !
 ! D13   D(10,1,6,7)             4.1207         -DE/DX =    0.0                 !
 ! D14   D(10,1,6,8)           150.6679         -DE/DX =    0.0                 !
 ! D15   D(10,1,6,9)          -103.045          -DE/DX =    0.0                 !
 ! D16   D(2,1,10,11)           76.2679         -DE/DX =    0.0                 !
 ! D17   D(2,1,10,12)         -163.4774         -DE/DX =    0.0                 !
 ! D18   D(2,1,10,13)          -41.8091         -DE/DX =    0.0                 !
 ! D19   D(3,1,10,11)         -172.0262         -DE/DX =    0.0                 !
 ! D20   D(3,1,10,12)          -51.7715         -DE/DX =    0.0                 !
 ! D21   D(3,1,10,13)           69.8969         -DE/DX =    0.0                 !
 ! D22   D(6,1,10,11)          -78.9034         -DE/DX =    0.0                 !
 ! D23   D(6,1,10,12)           41.3513         -DE/DX =    0.0                 !
 ! D24   D(6,1,10,13)          163.0197         -DE/DX =    0.0                 !
 ! D25   D(1,3,4,12)            18.0109         -DE/DX =    0.0                 !
 ! D26   D(5,3,4,12)           148.2149         -DE/DX =    0.0                 !
 ! D27   D(3,4,12,10)          -48.4824         -DE/DX =    0.0                 !
 ! D28   D(1,10,12,4)           49.1448         -DE/DX =    0.0                 !
 ! D29   D(11,10,12,4)         168.5477         -DE/DX =    0.0                 !
 ! D30   D(13,10,12,4)         -72.1327         -DE/DX =    0.0                 !
 --------------------------------------------------------------------------------
 GradGradGradGradGradGradGradGradGradGradGradGradGradGradGradGradGradGrad

 1|1|UNPC-DESKTOP-KC5UJLK|Freq|RPM6|ZDO|C3H8N1O1(1-)|23122|17-Mar-2022|
 0||#N Geom=AllCheck Guess=TCheck SCRF=Check GenChk RPM6/ZDO Freq||Ener
 gy Calculation(GC)||-1,1|C,-0.2473433443,-0.2678033279,-0.873797289|O,
 0.263928905,0.8561935636,-1.1334899385|N,0.2520416949,-0.5926316294,0.
 8925352363|H,-0.4226855619,-0.7106377286,1.6191865641|H,0.936038522,0.
 0782699988,1.1890042366|C,0.3676308512,-1.5585801607,-1.2211046697|H,-
 0.2470329433,-2.3892515352,-1.4483805362|H,1.2884947079,-1.5205222342,
 -1.7498024355|H,0.6851755153,-1.5948063216,0.2397405202|C,-1.804830820
 5,-0.2704268735,-0.7754532878|H,-2.2047625543,-0.2293013321,-1.7867698
 228|H,-2.1726309717,-1.1621119866,-0.2785835489|H,-2.1304746004,0.6153
 890273,-0.2341177788||Version=IA32W-G09RevD.01|State=1-A|HF=-0.0466775
 |RMSD=5.065e-010|RMSF=1.493e-005|ZeroPoint=0.0965874|Thermal=0.1030916
 |Dipole=-1.0132301,-0.8547422,1.1641379|DipoleDeriv=1.8577115,0.140333
 9,0.0836082,0.1269902,2.0102562,-0.6199763,-0.0933465,-0.3274689,1.767
 1889,-1.0631252,-0.3311017,0.185352,-0.3345259,-1.6683351,0.4692663,0.
 1147776,0.2023362,-0.9232339,-0.7766644,0.1985704,-0.0506366,0.0706243
 ,-0.865409,-0.2296088,-0.2118788,0.2657742,-1.5369616,0.1867544,-0.008
 9995,0.0010014,-0.0263306,0.1399139,-0.1078325,0.1133114,-0.0422973,-0
 .0229646,0.2064544,-0.0211113,0.0599183,-0.0288705,0.1818362,-0.057854
 9,-0.0437352,-0.1150786,0.0529365,-1.1952091,0.2350065,-0.2539327,0.21
 57767,-1.3692878,0.0684897,-0.089895,-0.1496963,-1.9436852,0.1436505,-
 0.0243026,0.0614285,-0.0430552,0.1655788,0.0002656,0.0182192,-0.073853
 8,0.2444074,0.1698226,-0.061743,-0.005968,0.0188771,0.1618085,-0.04122
 26,0.0799951,-0.0210857,0.2628126,0.3218526,-0.1053326,-0.0616824,-0.0
 179407,0.5273458,0.518068,0.0835809,0.2683838,1.3534201,-1.3335909,-0.
 0274395,-0.0235384,0.0507972,-0.7309312,-0.0050539,0.0079019,-0.015535
 9,-0.6921237,0.157491,0.001709,-0.0539041,-0.0124769,0.1596882,-0.0043
 124,0.032416,0.0065852,0.1468177,0.1631116,-0.0452184,0.0259878,0.0245
 938,0.1372124,0.0077267,-0.0069235,0.0103425,0.139365,0.1617368,0.0496
 281,0.0323666,-0.0444561,0.1503256,0.0020496,-0.0044235,-0.0084092,0.1
 520241|Polar=28.525564,2.8264284,33.8723469,-1.5884545,1.0348858,38.42
 14024|HyperPolar=-36.5442499,-3.5874717,-55.4052467,-12.4776019,26.146
 3714,27.5944642,41.651947,-23.5483883,28.5314551,59.4244222|PG=C01 [X(
 C3H8N1O1)]|NImag=1||0.51263711,0.06568582,0.80012100,-0.06275241,-0.02
 888767,0.16754016,-0.14418618,-0.17252499,0.02725247,0.16787361,-0.171
 07404,-0.44566668,0.05805539,0.21212767,0.53386630,0.03630699,0.084937
 36,-0.07674825,-0.05386808,-0.11151665,0.07696738,-0.04396048,0.000689
 68,0.02404188,0.01314214,0.00305698,0.00236354,0.34209081,-0.00234340,
 -0.04919301,-0.03482554,-0.00041821,-0.00352323,0.02926869,0.10962036,
 0.28753956,0.00106229,-0.01422173,0.03869077,0.01112694,0.04358988,-0.
 02654070,-0.08974837,0.08019612,0.29725978,0.00755678,0.00023399,0.010
 25828,0.00003687,0.00283656,-0.00266655,-0.13897633,-0.02436515,0.0979
 4395,0.15733119,-0.00344379,-0.00050619,-0.00636012,0.00006489,-0.0025
 9458,0.00255051,-0.01572668,-0.05097510,0.00272849,0.03533184,0.039903
 91,0.01242655,-0.00014681,0.00007827,-0.00142565,0.00236987,-0.0016731
 5,0.12443203,0.01550026,-0.16526308,-0.12718590,-0.01588096,0.16588823
 ,-0.00408898,-0.00448289,-0.00382742,-0.00093533,0.00023779,0.00121682
 ,-0.14305039,-0.09629843,-0.02856668,-0.02278719,-0.01977200,-0.005971
 04,0.16141812,0.00254535,0.00638092,-0.00926157,-0.00154857,-0.0030955
 5,-0.00119516,-0.10379215,-0.14143191,-0.04674322,-0.00606832,-0.00330
 221,0.00141712,0.12236235,0.14215614,-0.01315310,-0.01372059,-0.001901
 33,0.00347840,0.00356548,0.00266204,-0.04996363,-0.06375390,-0.0694034
 0,0.02044558,0.02033003,0.00936151,0.04140656,0.05502604,0.06521814,-0
 .11309009,0.05170710,0.00228802,0.02014742,-0.00127839,0.00100062,0.02
 560355,-0.01223171,-0.00287305,0.00148251,-0.00412386,-0.00113695,0.00
 128833,-0.00092384,0.00325606,0.41187049,0.06959965,-0.20592046,-0.008
 87504,0.00284615,-0.06991646,-0.00550712,-0.00132096,0.01681639,-0.028
 88356,-0.00259313,0.00127437,-0.00599128,-0.00178183,0.00168612,-0.001
 17089,0.02213338,0.48475690,0.03555289,-0.07539174,-0.11219828,0.00049
 974,0.00270442,0.02393985,0.02426199,-0.06927049,-0.06555352,0.0028602
 2,-0.01002452,-0.00358954,0.00453862,-0.00595039,-0.00519907,-0.114226
 73,0.13223146,0.24580458,0.00843676,0.00675543,0.00227253,-0.00053072,
 0.00251785,-0.00008612,-0.00092028,0.00165360,0.00075997,0.00001598,0.
 00024285,0.00015716,-0.00016088,0.00020230,0.00011023,-0.10349571,-0.0
 9671715,-0.01941106,0.11668805,-0.01131464,-0.03526887,-0.01092620,0.0
 0227476,-0.00166468,-0.00059213,-0.00009532,0.00025896,0.00020798,-0.0
 0022760,0.00042606,0.00022348,-0.00007288,0.00023306,0.00027057,-0.091
 15719,-0.15598085,-0.03355779,0.10739507,0.19480654,-0.00366572,-0.007
 38843,0.00623281,0.00086052,0.00062513,0.00052574,0.00041576,0.0030387
 3,-0.00178009,-0.00023136,0.00008079,-0.00116559,-0.00041227,0.0002674
 0,0.00005975,-0.02334698,-0.04298921,-0.03330533,0.02266665,0.04812647
 ,0.03354332,-0.01726040,0.01494216,0.01531205,-0.00112850,-0.00284629,
 -0.00029208,-0.00018856,-0.00066633,-0.00120680,0.00007320,-0.00027349
 ,-0.00043884,0.00017401,-0.00035506,-0.00045615,-0.18424848,-0.0086577
 3,0.08527482,-0.01747125,-0.00767574,0.00883959,0.21940551,0.02588667,
 -0.00445926,-0.01604398,-0.00138834,0.00080728,0.00133831,0.00001318,-
 0.00117116,-0.00018457,0.00007304,-0.00004884,0.00015353,0.00003149,0.
 00005843,-0.00027397,-0.01014347,-0.03580799,0.00232459,-0.01774758,-0
 .00192366,0.00666963,0.00259255,0.04252114,0.01225237,-0.00553328,0.00
 302385,-0.00050004,0.00090132,-0.00200715,-0.00284322,0.00141771,-0.00
 065843,-0.00025781,0.00065014,-0.00010988,-0.00027313,-0.00006102,-0.0
 0079244,0.09651819,0.00079912,-0.07629478,-0.00062213,-0.00044653,0.00
 489354,-0.11063992,0.00426528,0.08304063,-0.00143349,0.01934225,-0.026
 28573,-0.00265421,-0.00258566,0.00166708,-0.04072945,0.02240178,0.0308
 4197,-0.00318785,0.00775312,0.00177110,0.00874861,-0.01320120,-0.00513
 445,-0.02823693,-0.00058603,-0.02719076,-0.00063465,0.00014019,-0.0056
 1111,0.00145014,-0.00154869,0.00724076,0.06791780,0.01488867,0.0011200
 9,0.05648701,-0.00033941,-0.00077257,-0.00651251,0.00649348,-0.0641585
 7,-0.03759937,-0.00501424,0.01588682,0.00224474,-0.00064434,-0.0024345
 6,-0.00116974,0.01938384,-0.03400302,0.06140374,-0.00521282,-0.0003619
 2,-0.00823822,0.00190411,0.00214417,-0.00200156,-0.03146481,0.08436031
 ,-0.02780046,0.06171172,0.04117438,-0.00001725,-0.00791384,-0.00916454
 ,-0.01205504,0.03423859,0.00245887,-0.00099888,0.00593361,-0.00408539,
 -0.00749214,0.00521784,0.00122776,0.02644813,-0.03315974,0.01372684,-0
 .00594636,-0.00355881,-0.00792512,0.00326883,0.00203646,-0.01203568,0.
 02147613,-0.06122894,-0.01974043,-0.13695298,0.01763946,0.00715861,-0.
 04879441,-0.04337362,0.01408419,-0.01071951,0.00310455,-0.01796665,-0.
 00114589,-0.00029813,-0.00154336,-0.00016251,0.00045692,0.00021082,-0.
 02881249,0.01705817,0.00679754,-0.00123570,0.00008502,0.00018283,-0.00
 059641,0.00197326,-0.00083639,-0.00051402,-0.00012598,0.00364239,0.388
 76832,0.00678169,-0.07364658,0.00194170,-0.04123441,-0.00375870,0.0066
 0830,0.00108611,0.00729269,0.00068646,-0.00026588,-0.00025437,0.000064
 78,0.00050068,-0.00032286,0.00110008,0.02729280,-0.00102253,-0.0038045
 9,0.00009589,-0.00021675,0.00007471,0.00102714,-0.00217550,-0.00007118
 ,-0.00055416,-0.00246089,-0.00398660,0.00869824,0.43654524,0.00844797,
 0.00052138,-0.07075157,0.01195665,0.00612814,0.01392429,-0.02134306,0.
 00533513,-0.00670368,0.00078669,-0.00021766,0.00199345,-0.00026983,0.0
 0116975,-0.00108031,0.01243143,-0.00629472,0.01610396,-0.00049440,0.00
 058569,-0.00142989,0.00028615,-0.00020839,0.00064691,0.00171054,-0.004
 53833,-0.00776933,-0.00622482,-0.00431561,0.41046953,-0.02517885,0.000
 94751,-0.02693996,0.00042249,0.00042878,0.00183398,-0.00253086,0.00060
 168,-0.00044727,0.00011357,-0.00001818,0.00037272,-0.00013063,0.000276
 03,-0.00022168,0.00077741,-0.00059973,0.00267490,-0.00029973,0.0003694
 7,-0.00032042,-0.00003315,0.00007949,0.00004382,0.00023112,-0.00077679
 ,-0.00143012,-0.05718080,0.00258595,-0.06569706,0.07494042,0.00101300,
 0.00713684,0.00004368,0.00023474,-0.00189562,0.00057194,0.00015836,-0.
 00027611,0.00014504,0.00002960,-0.00002092,-0.00003116,0.00001810,-0.0
 0002978,-0.00003859,-0.00055972,-0.00091898,-0.00070516,0.00039496,-0.
 00021410,0.00008725,-0.00002197,0.00003354,0.00006819,0.00001173,0.000
 35057,0.00042981,0.00204744,-0.03536225,0.00661521,-0.00329783,0.03454
 038,-0.01664324,-0.00088045,-0.00135211,0.00147781,0.00179584,-0.00105
 219,0.00002508,-0.00022249,0.00061245,0.00001464,0.00000344,0.00006264
 ,-0.00005585,0.00001649,-0.00007455,0.00062190,-0.00045763,-0.00103321
 ,0.00003513,0.00003480,0.00019158,0.00007567,-0.00013300,0.00015950,-0
 .00009051,0.00017770,-0.00010612,-0.05975781,0.00694881,-0.19784693,0.
 08237750,-0.00809654,0.23530637,-0.01979055,-0.02578380,0.01525722,-0.
 00468141,0.00072198,-0.00048852,-0.00046615,0.00018833,-0.00091876,-0.
 00038359,-0.00004189,-0.00089200,-0.00004748,-0.00001740,0.00021908,-0
 .00009330,0.00103826,-0.00077803,-0.00054013,0.00051907,0.00060853,0.0
 0006799,-0.00020025,-0.00004029,-0.00077838,0.00012612,-0.00016532,-0.
 05351021,-0.05076999,0.02971416,0.00448026,0.00416362,-0.00378688,0.07
 165741,-0.01329897,-0.00139475,0.00400691,0.00094144,0.00135840,-0.000
 54266,0.00001260,-0.00081735,0.00011488,-0.00021499,0.00023973,-0.0002
 3237,-0.00007501,0.00000207,-0.00012571,0.00048710,-0.00124500,-0.0003
 5212,0.00036779,-0.00006279,-0.00029965,0.00002971,-0.00005165,0.00003
 872,0.00014538,0.00045733,0.00020091,-0.04894574,-0.16355993,0.0714216
 2,-0.00104344,-0.00256261,0.00716770,0.06649164,0.19278521,0.00809464,
 0.00484960,0.00302595,-0.00010003,-0.00061730,0.00004335,0.00005500,-0
 .00055996,-0.00162376,-0.00054768,-0.00008995,-0.00089106,-0.00010661,
 0.00001571,-0.00002541,-0.00058093,-0.00012395,-0.00177442,0.00053099,
 -0.00035404,0.00007951,-0.00001825,0.00004269,0.00010287,-0.00029636,0
 .00065483,0.00136694,0.02784062,0.07104786,-0.07511220,0.00436567,0.02
 108741,-0.01670641,-0.03766528,-0.08796485,0.08513939,-0.02268866,0.02
 484791,0.01596429,0.00128811,-0.00076942,-0.00107189,0.00070522,-0.001
 24667,-0.00000744,-0.00012919,0.00030521,-0.00056569,-0.00026568,0.000
 06360,-0.00019758,-0.00319275,-0.00041896,-0.00085426,0.00014834,-0.00
 024016,0.00001425,-0.00024420,0.00037870,-0.00004227,-0.00017843,0.000
 78194,0.00106987,-0.04914325,0.04475589,0.02869547,0.00438869,-0.00419
 205,-0.00429345,0.00408557,-0.00489751,-0.00157178,0.06522621,0.015073
 39,0.00129640,-0.00535477,-0.00103529,-0.00314327,0.00059083,-0.000195
 28,-0.00036130,-0.00003586,0.00024413,-0.00002858,0.00030859,-0.000023
 30,0.00010013,-0.00003911,-0.00058561,0.00028145,0.00039288,0.00005167
 ,-0.00003127,-0.00005438,0.00000089,0.00007347,-0.00002699,0.00014603,
 -0.00012755,0.00007891,0.04168056,-0.16105728,-0.07620215,0.00044699,-
 0.00078108,-0.00635466,0.00356431,-0.02514868,-0.00798801,-0.05936847,
 0.18892751,0.00987095,-0.00584908,0.00318473,-0.00074146,0.00031231,-0
 .00087644,0.00035819,-0.00036277,-0.00149504,-0.00042129,0.00029612,-0
 .00060640,-0.00018700,0.00008083,-0.00005263,-0.00039927,0.00042225,-0
 .00062667,0.00002729,-0.00001340,0.00007971,-0.00000509,0.00001340,0.0
 0003112,-0.00009882,0.00032082,0.00087184,0.02641188,-0.07629475,-0.08
 244438,0.00338797,-0.02017713,-0.01816094,-0.00106384,0.00656668,0.006
 37518,-0.03713948,0.09468470,0.09371982||0.00001089,0.00001928,0.00004
 994,-0.00000112,0.00000291,-0.00000983,-0.00001355,0.00000822,-0.00001
 515,0.00000745,-0.00000665,-0.00000761,0.00000431,-0.00000281,-0.00000
 282,0.00002772,-0.00000664,0.00003505,-0.00000147,-0.00000410,0.000012
 62,-0.00000577,-0.00000062,-0.00000460,-0.00001452,-0.00000556,-0.0000
 4682,-0.00000434,-0.00000066,-0.00000953,0.00000282,-0.00000031,-0.000
 00094,-0.00000917,-0.00000110,0.00000179,-0.00000327,-0.00000195,-0.00
 000207|||@


 The chemist is a guest at the physicist's table and
 frequently dines well.
                   -- Richard Bersohn
 Job cpu time:       0 days  0 hours  0 minutes  1.0 seconds.
 File lengths (MBytes):  RWF=      7 Int=      0 D2E=      0 Chk=      2 Scr=      1
 Normal termination of Gaussian 09 at Thu Mar 17 17:12:59 2022.
