 Entering Link 1 = C:\G09W\l1.exe PID=      1656.
  
 Copyright (c) 1988,1990,1992,1993,1995,1998,2003,2009,2013,
            Gaussian, Inc.  All Rights Reserved.
  
 This is part of the Gaussian(R) 09 program.  It is based on
 the Gaussian(R) 03 system (copyright 2003, Gaussian, Inc.),
 the Gaussian(R) 98 system (copyright 1998, Gaussian, Inc.),
 the Gaussian(R) 94 system (copyright 1995, Gaussian, Inc.),
 the Gaussian 92(TM) system (copyright 1992, Gaussian, Inc.),
 the Gaussian 90(TM) system (copyright 1990, Gaussian, Inc.),
 the Gaussian 88(TM) system (copyright 1988, Gaussian, Inc.),
 the Gaussian 86(TM) system (copyright 1986, Carnegie Mellon
 University), and the Gaussian 82(TM) system (copyright 1983,
 Carnegie Mellon University). Gaussian is a federally registered
 trademark of Gaussian, Inc.
  
 This software contains proprietary and confidential information,
 including trade secrets, belonging to Gaussian, Inc.
  
 This software is provided under written license and may be
 used, copied, transmitted, or stored only in accord with that
 written license.
  
 The following legend is applicable only to US Government
 contracts under FAR:
  
                    RESTRICTED RIGHTS LEGEND
  
 Use, reproduction and disclosure by the US Government is
 subject to restrictions as set forth in subparagraphs (a)
 and (c) of the Commercial Computer Software - Restricted
 Rights clause in FAR 52.227-19.
  
 Gaussian, Inc.
 340 Quinnipiac St., Bldg. 40, Wallingford CT 06492
  
  
 ---------------------------------------------------------------
 Warning -- This program may not be used in any manner that
 competes with the business of Gaussian, Inc. or will provide
 assistance to any competitor of Gaussian, Inc.  The licensee
 of this program is prohibited from giving any competitor of
 Gaussian, Inc. access to this program.  By using this program,
 the user acknowledges that Gaussian, Inc. is engaged in the
 business of creating and licensing software in the field of
 computational chemistry and represents and warrants to the
 licensee that it is not a competitor of Gaussian, Inc. and that
 it will not use this program in any manner prohibited above.
 ---------------------------------------------------------------
  

 Cite this work as:
 Gaussian 09, Revision D.01,
 M. J. Frisch, G. W. Trucks, H. B. Schlegel, G. E. Scuseria, 
 M. A. Robb, J. R. Cheeseman, G. Scalmani, V. Barone, B. Mennucci, 
 G. A. Petersson, H. Nakatsuji, M. Caricato, X. Li, H. P. Hratchian, 
 A. F. Izmaylov, J. Bloino, G. Zheng, J. L. Sonnenberg, M. Hada, 
 M. Ehara, K. Toyota, R. Fukuda, J. Hasegawa, M. Ishida, T. Nakajima, 
 Y. Honda, O. Kitao, H. Nakai, T. Vreven, J. A. Montgomery, Jr., 
 J. E. Peralta, F. Ogliaro, M. Bearpark, J. J. Heyd, E. Brothers, 
 K. N. Kudin, V. N. Staroverov, T. Keith, R. Kobayashi, J. Normand, 
 K. Raghavachari, A. Rendell, J. C. Burant, S. S. Iyengar, J. Tomasi, 
 M. Cossi, N. Rega, J. M. Millam, M. Klene, J. E. Knox, J. B. Cross, 
 V. Bakken, C. Adamo, J. Jaramillo, R. Gomperts, R. E. Stratmann, 
 O. Yazyev, A. J. Austin, R. Cammi, C. Pomelli, J. W. Ochterski, 
 R. L. Martin, K. Morokuma, V. G. Zakrzewski, G. A. Voth, 
 P. Salvador, J. J. Dannenberg, S. Dapprich, A. D. Daniels, 
 O. Farkas, J. B. Foresman, J. V. Ortiz, J. Cioslowski, 
 and D. J. Fox, Gaussian, Inc., Wallingford CT, 2013.
 
 ******************************************
 Gaussian 09:  IA32W-G09RevD.01 24-Apr-2013
                17-Mar-2022 
 ******************************************
 %nprocshared=4
 Will use up to    4 processors via shared memory.
 %mem=1GB
 ----------------------------------------------------
 # opt=(calcfc,ts,noeigen) freq pm6 geom=connectivity
 ----------------------------------------------------
 1/5=1,10=4,11=1,14=-1,18=20,26=1,38=1,57=2/1,3;
 2/9=110,12=2,17=6,18=5,40=1/2;
 3/5=2,16=1,25=1,41=3900000,71=2,140=1/1,2,3;
 4/35=1/1;
 5/5=2,35=1,38=5/2;
 8/6=4,10=90,11=11/1;
 11/6=1,8=1,9=11,15=111,16=1/1,2,10;
 10/6=1,13=1/2;
 6/7=2,8=2,9=2,10=2,28=1/1;
 7/10=1,18=20,25=1/1,2,3,16;
 1/5=1,10=4,11=1,14=-1,18=20,26=1/3(2);
 2/9=110/2;
 99//99;
 2/9=110/2;
 3/5=2,16=1,25=1,41=3900000,71=1,135=20/1,2,3;
 4/5=5,16=3,35=1/1;
 5/5=2,35=1,38=5/2;
 7//1,2,3,16;
 1/5=1,11=1,14=-1,18=20,26=1/3(-5);
 2/9=110/2;
 6/7=2,8=2,9=2,10=2,19=2,28=1/1;
 99/9=1/99;
 ----------------------
 Energy Calculation(GC)
 ----------------------
 Symbolic Z-matrix:
 Charge = -1 Multiplicity = 1
 C                    -3.24314   0.46069  -0.25054 
 H                    -3.13519  -0.60068  -0.33268 
 H                    -3.02754   0.91526  -1.19488 
 H                    -4.2801    0.8287    0.22976 
 C                    -2.33481   0.95728   0.73598 
 H                    -2.4414    2.01889   0.81674 
 H                    -2.55166   0.50416   1.68073 
 Br                   -0.36611   0.49231   0.17205 
 O                    -5.44372   0.49824  -0.33839 
 H                    -5.95438   1.28064  -0.47019 
 
 Add virtual bond connecting atoms O9         and H4         Dist= 2.53D+00.

 GradGradGradGradGradGradGradGradGradGradGradGradGradGradGradGradGradGrad
 Berny optimization.
 Initialization pass.
                           ----------------------------
                           !    Initial Parameters    !
                           ! (Angstroms and Degrees)  !
 --------------------------                            --------------------------
 ! Name  Definition              Value          Derivative Info.                !
 --------------------------------------------------------------------------------
 ! R1    R(1,2)                  1.07           calculate D2E/DX2 analytically  !
 ! R2    R(1,3)                  1.07           calculate D2E/DX2 analytically  !
 ! R3    R(1,4)                  1.2006         calculate D2E/DX2 analytically  !
 ! R4    R(1,5)                  1.43           calculate D2E/DX2 analytically  !
 ! R5    R(4,9)                  1.3364         calculate D2E/DX2 analytically  !
 ! R6    R(5,6)                  1.07           calculate D2E/DX2 analytically  !
 ! R7    R(5,7)                  1.07           calculate D2E/DX2 analytically  !
 ! R8    R(5,8)                  2.1            calculate D2E/DX2 analytically  !
 ! R9    R(9,10)                 0.9436         calculate D2E/DX2 analytically  !
 ! A1    A(2,1,3)              109.4712         calculate D2E/DX2 analytically  !
 ! A2    A(2,1,4)              114.9549         calculate D2E/DX2 analytically  !
 ! A3    A(2,1,5)              109.4712         calculate D2E/DX2 analytically  !
 ! A4    A(3,1,4)              113.3836         calculate D2E/DX2 analytically  !
 ! A5    A(3,1,5)              109.4713         calculate D2E/DX2 analytically  !
 ! A6    A(4,1,5)               99.5665         calculate D2E/DX2 analytically  !
 ! A7    A(1,4,9)              120.4088         calculate D2E/DX2 analytically  !
 ! A8    A(1,5,6)              109.4712         calculate D2E/DX2 analytically  !
 ! A9    A(1,5,7)              109.4712         calculate D2E/DX2 analytically  !
 ! A10   A(1,5,8)              109.4712         calculate D2E/DX2 analytically  !
 ! A11   A(6,5,7)              109.4712         calculate D2E/DX2 analytically  !
 ! A12   A(6,5,8)              109.4712         calculate D2E/DX2 analytically  !
 ! A13   A(7,5,8)              109.4712         calculate D2E/DX2 analytically  !
 ! A14   A(4,9,10)             109.0            calculate D2E/DX2 analytically  !
 ! D1    D(2,1,4,9)            -58.9228         calculate D2E/DX2 analytically  !
 ! D2    D(3,1,4,9)             68.0742         calculate D2E/DX2 analytically  !
 ! D3    D(5,1,4,9)           -175.7481         calculate D2E/DX2 analytically  !
 ! D4    D(2,1,5,6)            179.8889         calculate D2E/DX2 analytically  !
 ! D5    D(2,1,5,7)            -60.1111         calculate D2E/DX2 analytically  !
 ! D6    D(2,1,5,8)             59.8889         calculate D2E/DX2 analytically  !
 ! D7    D(3,1,5,6)             59.8889         calculate D2E/DX2 analytically  !
 ! D8    D(3,1,5,7)            179.8889         calculate D2E/DX2 analytically  !
 ! D9    D(3,1,5,8)            -60.1111         calculate D2E/DX2 analytically  !
 ! D10   D(4,1,5,6)            -59.2208         calculate D2E/DX2 analytically  !
 ! D11   D(4,1,5,7)             60.7792         calculate D2E/DX2 analytically  !
 ! D12   D(4,1,5,8)           -179.2208         calculate D2E/DX2 analytically  !
 ! D13   D(1,4,9,10)          -127.9023         calculate D2E/DX2 analytically  !
 --------------------------------------------------------------------------------
 Trust Radius=3.00D-01 FncErr=1.00D-07 GrdErr=1.00D-07
 Number of steps in this run=     46 maximum allowed number of steps=    100.
 Search for a saddle point of order  1.
 GradGradGradGradGradGradGradGradGradGradGradGradGradGradGradGradGradGrad

                          Input orientation:                          
 ---------------------------------------------------------------------
 Center     Atomic      Atomic             Coordinates (Angstroms)
 Number     Number       Type             X           Y           Z
 ---------------------------------------------------------------------
      1          6           0       -3.243144    0.460689   -0.250542
      2          1           0       -3.135187   -0.600678   -0.332676
      3          1           0       -3.027540    0.915264   -1.194882
      4          1           0       -4.280103    0.828700    0.229756
      5          6           0       -2.334812    0.957281    0.735981
      6          1           0       -2.441404    2.018892    0.816735
      7          1           0       -2.551659    0.504158    1.680734
      8         35           0       -0.366111    0.492314    0.172046
      9          8           0       -5.443725    0.498235   -0.338387
     10          1           0       -5.954381    1.280641   -0.470190
 ---------------------------------------------------------------------
                    Distance matrix (angstroms):
                    1          2          3          4          5
     1  C    0.000000
     2  H    1.070000   0.000000
     3  H    1.070000   1.747303   0.000000
     4  H    1.200584   1.915798   1.898947   0.000000
     5  C    1.430000   2.051796   2.051796   2.014188   0.000000
     6  H    2.051796   2.943574   2.368154   2.267579   1.070000
     7  H    2.051796   2.369596   2.943575   2.279952   1.070000
     8  Br   2.908075   3.019463   3.021685   3.928844   2.100000
     9  O    2.202654   2.556754   2.597200   1.336417   3.321194
    10  H    2.841017   3.392068   3.037282   1.870130   3.828929
                    6          7          8          9         10
     6  H    0.000000
     7  H    1.747303   0.000000
     8  Br   2.655730   2.655730   0.000000
     9  O    3.558179   3.527170   5.103209   0.000000
    10  H    3.813424   4.099746   5.680026   0.943558   0.000000
 Stoichiometry    C2H6BrO(1-)
 Framework group  C1[X(C2H6BrO)]
 Deg. of freedom    24
 Full point group                 C1      NOp   1
 Largest Abelian subgroup         C1      NOp   1
 Largest concise Abelian subgroup C1      NOp   1
                         Standard orientation:                         
 ---------------------------------------------------------------------
 Center     Atomic      Atomic             Coordinates (Angstroms)
 Number     Number       Type             X           Y           Z
 ---------------------------------------------------------------------
      1          6           0        1.444724   -0.270610   -0.001126
      2          1           0        1.319523   -0.902115   -0.855775
      3          1           0        1.329349   -0.850415    0.890735
      4          1           0        2.440731    0.399707   -0.008169
      5          6           0        0.460260    0.766259   -0.026281
      6          1           0        0.584237    1.396627    0.829386
      7          1           0        0.576868    1.347257   -0.917204
      8         35           0       -1.457635   -0.088516    0.005971
      9          8           0        3.644140   -0.177549   -0.075933
     10          1           0        4.183486    0.153483    0.623942
 ---------------------------------------------------------------------
 Rotational constants (GHZ):     27.9404344      1.1625017      1.1338679
 Standard basis: VSTO-6G (5D, 7F)
 There are    28 symmetry adapted cartesian basis functions of A   symmetry.
 There are    27 symmetry adapted basis functions of A   symmetry.
    27 basis functions,   168 primitive gaussians,    28 cartesian basis functions
    14 alpha electrons       14 beta electrons
       nuclear repulsion energy        90.5617180272 Hartrees.
 Integral buffers will be    262144 words long.
 Regular integral format.
 Two-electron integral symmetry is turned off.
 Do NDO integrals.
 One-electron integrals computed using PRISM.
 NBasis=    27 RedAO= F EigKep=  0.00D+00  NBF=    27
 NBsUse=    27 1.00D-04 EigRej=  0.00D+00 NBFU=    27
 Nonelectrostatic core Hamiltonian diagonalized for initial guess.
 Overlap will be assumed to be unity.
 Keep J ints in memory in canonical form, NReq=1874650.
 Requested convergence on RMS density matrix=1.00D-08 within 128 cycles.
 Requested convergence on MAX density matrix=1.00D-06.
 Requested convergence on             energy=1.00D-06.
 No special actions if energy rises.
 SCF Done:  E(RPM6) = -0.728398961770E-01 A.U. after   17 cycles
            NFock= 16  Conv=0.45D-08     -V/T= 0.9946
 Range of M.O.s used for correlation:     1    27
 NBasis=    27 NAE=    14 NBE=    14 NFC=     0 NFV=     0
 NROrb=     27 NOA=    14 NOB=    14 NVA=    13 NVB=    13
 Symmetrizing basis deriv contribution to polar:
 IMax=3 JMax=2 DiffMx= 0.00D+00
 G2DrvN: will do    11 centers at a time, making    1 passes.
 Calling FoFCou, ICntrl=  3107 FMM=F I1Cent=   0 AccDes= 0.00D+00.
 End of G2Drv F.D. properties file   721 does not exist.
 End of G2Drv F.D. properties file   722 does not exist.
 End of G2Drv F.D. properties file   788 does not exist.
          IDoAtm=1111111111
          Differentiating once with respect to nuclear coordinates.
          Electric field/nuclear overlap derivatives assumed to be zero.
 Keep J ints in memory in canonical form, NReq=1857637.
          There are    33 degrees of freedom in the 1st order CPHF.  IDoFFX=5 NUNeed=    33.
 LinEq1:  Iter=  0 NonCon=    30 RMS=2.48D-02 Max=1.77D-01 NDo=    30
 AX will form    33 AO Fock derivatives at one time.
 LinEq1:  Iter=  1 NonCon=    30 RMS=3.35D-03 Max=1.90D-02 NDo=    33
 LinEq1:  Iter=  2 NonCon=    30 RMS=5.04D-04 Max=2.87D-03 NDo=    33
 LinEq1:  Iter=  3 NonCon=    30 RMS=8.52D-05 Max=4.80D-04 NDo=    33
 LinEq1:  Iter=  4 NonCon=    30 RMS=2.05D-05 Max=1.09D-04 NDo=    33
 LinEq1:  Iter=  5 NonCon=    30 RMS=3.43D-06 Max=1.68D-05 NDo=    33
 LinEq1:  Iter=  6 NonCon=    30 RMS=5.88D-07 Max=3.10D-06 NDo=    33
 LinEq1:  Iter=  7 NonCon=    29 RMS=9.26D-08 Max=5.19D-07 NDo=    33
 LinEq1:  Iter=  8 NonCon=     6 RMS=1.99D-08 Max=1.39D-07 NDo=    33
 LinEq1:  Iter=  9 NonCon=     0 RMS=3.40D-09 Max=1.42D-08 NDo=    33
 Linear equations converged to 1.000D-08 1.000D-07 after     9 iterations.
 End of Minotr F.D. properties file   721 does not exist.
 End of Minotr F.D. properties file   722 does not exist.
 End of Minotr F.D. properties file   788 does not exist.

 **********************************************************************

            Population analysis using the SCF density.

 **********************************************************************

 Orbital symmetries:
       Occupied  (A) (A) (A) (A) (A) (A) (A) (A) (A) (A) (A) (A)
                 (A) (A)
       Virtual   (A) (A) (A) (A) (A) (A) (A) (A) (A) (A) (A) (A)
                 (A)
 The electronic state is 1-A.
 Alpha  occ. eigenvalues --   -0.89733  -0.85814  -0.75296  -0.61838  -0.44043
 Alpha  occ. eigenvalues --   -0.41979  -0.34316  -0.31190  -0.28650  -0.26104
 Alpha  occ. eigenvalues --   -0.23446  -0.23419  -0.16981  -0.11742
 Alpha virt. eigenvalues --    0.15133   0.32657   0.34048   0.36123   0.40388
 Alpha virt. eigenvalues --    0.40738   0.43491   0.45778   4.43100   4.43159
 Alpha virt. eigenvalues --    4.43892   4.43950   4.44123
          Condensed to atoms (all electrons):
               1          2          3          4          5          6
     1  C    4.577601   0.000000   0.000000   0.000000   0.000000   0.000000
     2  H    0.000000   0.842068   0.000000   0.000000   0.000000   0.000000
     3  H    0.000000   0.000000   0.851401   0.000000   0.000000   0.000000
     4  H    0.000000   0.000000   0.000000   0.647017   0.000000   0.000000
     5  C    0.000000   0.000000   0.000000   0.000000   4.047985   0.000000
     6  H    0.000000   0.000000   0.000000   0.000000   0.000000   0.890123
     7  H    0.000000   0.000000   0.000000   0.000000   0.000000   0.000000
     8  Br   0.000000   0.000000   0.000000   0.000000   0.000000   0.000000
     9  O    0.000000   0.000000   0.000000   0.000000   0.000000   0.000000
    10  H    0.000000   0.000000   0.000000   0.000000   0.000000   0.000000
               7          8          9         10
     1  C    0.000000   0.000000   0.000000   0.000000
     2  H    0.000000   0.000000   0.000000   0.000000
     3  H    0.000000   0.000000   0.000000   0.000000
     4  H    0.000000   0.000000   0.000000   0.000000
     5  C    0.000000   0.000000   0.000000   0.000000
     6  H    0.000000   0.000000   0.000000   0.000000
     7  H    0.884228   0.000000   0.000000   0.000000
     8  Br   0.000000   7.484664   0.000000   0.000000
     9  O    0.000000   0.000000   7.026378   0.000000
    10  H    0.000000   0.000000   0.000000   0.748535
 Mulliken charges:
               1
     1  C   -0.577601
     2  H    0.157932
     3  H    0.148599
     4  H    0.352983
     5  C   -0.047985
     6  H    0.109877
     7  H    0.115772
     8  Br  -0.484664
     9  O   -1.026378
    10  H    0.251465
 Sum of Mulliken charges =  -1.00000
 Mulliken charges with hydrogens summed into heavy atoms:
               1
     1  C    0.081914
     5  C    0.177664
     8  Br  -0.484664
     9  O   -0.774913
 APT charges:
               1
     1  C   -0.577601
     2  H    0.157932
     3  H    0.148599
     4  H    0.352983
     5  C   -0.047985
     6  H    0.109877
     7  H    0.115772
     8  Br  -0.484664
     9  O   -1.026378
    10  H    0.251465
 Sum of APT charges =  -1.00000
 APT charges with hydrogens summed into heavy atoms:
               1
     1  C    0.081914
     5  C    0.177664
     8  Br  -0.484664
     9  O   -0.774913
 Charge=             -1.0000 electrons
 Dipole moment (field-independent basis, Debye):
    X=             -7.4437    Y=              2.6931    Z=              1.2899  Tot=              8.0203
 N-N= 9.056171802721D+01 E-N=-1.558333666030D+02  KE=-1.354473443881D+01
  Exact polarizability:   0.000   0.000   0.000   0.000   0.000   0.000
 Approx polarizability:  71.735   1.629  16.082   0.784   0.682  12.371
 Calling FoFJK, ICntrl=    100147 FMM=F ISym2X=0 I1Cent= 0 IOpClX= 0 NMat=1 NMatS=1 NMatT=0.
 ***** Axes restored to original set *****
 -------------------------------------------------------------------
 Center     Atomic                   Forces (Hartrees/Bohr)
 Number     Number              X              Y              Z
 -------------------------------------------------------------------
      1        6           0.077104745   -0.009590904   -0.013202633
      2        1          -0.018597968   -0.013245763   -0.006775695
      3        1          -0.015674984    0.001875180   -0.016141699
      4        1          -0.038537787   -0.003830296   -0.007150516
      5        6          -0.000604466    0.005954918    0.010610573
      6        1           0.016049501    0.018758893    0.004127164
      7        1           0.013865146   -0.007971111    0.019183789
      8       35           0.005220711    0.004069311    0.007426996
      9        8          -0.045476873    0.017338025    0.000585291
     10        1           0.006651975   -0.013358253    0.001336731
 -------------------------------------------------------------------
 Cartesian Forces:  Max     0.077104745 RMS     0.020761097
 FormGI is forming the generalized inverse of G from B-inverse, IUseBI=4.

 GradGradGradGradGradGradGradGradGradGradGradGradGradGradGradGradGradGrad
 Berny optimization.
 Internal  Forces:  Max     0.064773201 RMS     0.021105356
 Search for a saddle point.
 Step number   1 out of a maximum of   46
 All quantities printed in internal units (Hartrees-Bohrs-Radians)
 Swapping is turned off.
 Second derivative matrix not updated -- analytic derivatives used.
 ITU=  0
     Eigenvalues ---   -0.01083  -0.00060  -0.00002   0.00439   0.02775
     Eigenvalues ---    0.03345   0.03442   0.04206   0.04679   0.06680
     Eigenvalues ---    0.07927   0.10599   0.10682   0.12939   0.13137
     Eigenvalues ---    0.15758   0.21373   0.21827   0.27629   0.27903
     Eigenvalues ---    0.28558   0.29654   0.32319   0.57479
 Eigenvectors required to have negative eigenvalues:
                          R5        R3        R8        A7        A6
   1                    0.69273  -0.46570  -0.28894  -0.23906   0.16927
                          A14       R4        D5        D7        D11
   1                    0.14269   0.13983  -0.12757   0.12708  -0.07930
 RFO step:  Lambda0=1.214119790D-02 Lambda=-4.93098798D-02.
 Linear search not attempted -- option 19 set.
 Maximum step size (   0.300) exceeded in Quadratic search.
    -- Step size scaled by   0.373
 Iteration  1 RMS(Cart)=  0.09123824 RMS(Int)=  0.01629270
 Iteration  2 RMS(Cart)=  0.01953213 RMS(Int)=  0.00132975
 Iteration  3 RMS(Cart)=  0.00092555 RMS(Int)=  0.00091092
 Iteration  4 RMS(Cart)=  0.00000172 RMS(Int)=  0.00091092
 Iteration  5 RMS(Cart)=  0.00000000 RMS(Int)=  0.00091092
 Variable       Old X    -DE/DX   Delta X   Delta X   Delta X     New X
                                 (Linear)    (Quad)   (Total)
    R1        2.02201   0.01178   0.00000   0.01229   0.01229   2.03430
    R2        2.02201   0.01188   0.00000   0.01295   0.01295   2.03496
    R3        2.26878   0.06477   0.00000  -0.07907  -0.07907   2.18970
    R4        2.70231   0.05769   0.00000   0.05411   0.05411   2.75642
    R5        2.52546   0.03200   0.00000   0.21591   0.21591   2.74138
    R6        2.02201   0.01732   0.00000   0.01901   0.01901   2.04102
    R7        2.02201   0.01750   0.00000   0.01914   0.01914   2.04115
    R8        3.96842   0.00200   0.00000  -0.10015  -0.10015   3.86828
    R9        1.78307  -0.01486   0.00000  -0.04145  -0.04145   1.74161
    A1        1.91063  -0.00438   0.00000  -0.01038  -0.01215   1.89849
    A2        2.00634  -0.01592   0.00000  -0.05075  -0.05301   1.95334
    A3        1.91063   0.01173   0.00000   0.01404   0.01476   1.92539
    A4        1.97892  -0.01394   0.00000  -0.04552  -0.04772   1.93120
    A5        1.91063   0.01159   0.00000   0.01183   0.01245   1.92308
    A6        1.73776   0.01545   0.00000   0.09458   0.09420   1.83196
    A7        2.10153   0.05453   0.00000   0.02765   0.02765   2.12918
    A8        1.91063   0.01514   0.00000   0.00077   0.00070   1.91134
    A9        1.91063   0.01459   0.00000   0.00082   0.00076   1.91139
   A10        1.91063   0.01879   0.00000   0.03122   0.03109   1.94173
   A11        1.91063  -0.00876   0.00000  -0.01290  -0.01290   1.89773
   A12        1.91063  -0.02007   0.00000  -0.00937  -0.00950   1.90113
   A13        1.91063  -0.01970   0.00000  -0.01056  -0.01068   1.89995
   A14        1.90241   0.00336   0.00000   0.06565   0.06565   1.96806
    D1       -1.02840   0.01668   0.00000   0.02667   0.02395  -1.00445
    D2        1.18812  -0.01639   0.00000  -0.07469  -0.07212   1.11599
    D3       -3.06738   0.00020   0.00000  -0.02578  -0.02562  -3.09301
    D4        3.13965   0.00110   0.00000   0.00346   0.00293  -3.14060
    D5       -1.04914   0.00858   0.00000  -0.01136  -0.01195  -1.06109
    D6        1.04526   0.00490   0.00000  -0.00466  -0.00523   1.04003
    D7        1.04526  -0.00782   0.00000   0.00033   0.00088   1.04614
    D8        3.13965  -0.00034   0.00000  -0.01448  -0.01400   3.12565
    D9       -1.04914  -0.00402   0.00000  -0.00779  -0.00727  -1.05641
   D10       -1.03360  -0.00429   0.00000   0.00001   0.00010  -1.03350
   D11        1.06080   0.00320   0.00000  -0.01480  -0.01478   1.04601
   D12       -3.12799  -0.00049   0.00000  -0.00810  -0.00806  -3.13605
   D13       -2.23232  -0.00003   0.00000  -0.29578  -0.29578  -2.52810
         Item               Value     Threshold  Converged?
 Maximum Force            0.064773     0.000450     NO 
 RMS     Force            0.021105     0.000300     NO 
 Maximum Displacement     0.336071     0.001800     NO 
 RMS     Displacement     0.102758     0.001200     NO 
 Predicted change in Energy=-1.170182D-02
 GradGradGradGradGradGradGradGradGradGradGradGradGradGradGradGradGradGrad

                          Input orientation:                          
 ---------------------------------------------------------------------
 Center     Atomic      Atomic             Coordinates (Angstroms)
 Number     Number       Type             X           Y           Z
 ---------------------------------------------------------------------
      1          6           0       -3.235327    0.491380   -0.226120
      2          1           0       -3.183721   -0.579733   -0.320522
      3          1           0       -3.038718    0.933957   -1.187933
      4          1           0       -4.261943    0.840635    0.182240
      5          6           0       -2.261123    0.961053    0.752627
      6          1           0       -2.324659    2.035884    0.837694
      7          1           0       -2.477829    0.523426    1.716059
      8         35           0       -0.355565    0.449675    0.207124
      9          8           0       -5.506957    0.512385   -0.486077
     10          1           0       -6.132223    1.186834   -0.426516
 ---------------------------------------------------------------------
                    Distance matrix (angstroms):
                    1          2          3          4          5
     1  C    0.000000
     2  H    1.076503   0.000000
     3  H    1.076853   1.750624   0.000000
     4  H    1.158740   1.852777   1.839120   0.000000
     5  C    1.458634   2.092095   2.090732   2.084017   0.000000
     6  H    2.084828   2.986788   2.413978   2.368820   1.080062
     7  H    2.084920   2.421344   2.986017   2.374086   1.080130
     8  Br   2.912468   3.055578   3.062683   3.925973   2.047005
     9  O    2.286553   2.572462   2.600486   1.450674   3.503018
    10  H    2.985937   3.438846   3.195852   1.997093   4.052995
                    6          7          8          9         10
     6  H    0.000000
     7  H    1.755709   0.000000
     8  Br   2.605956   2.605058   0.000000
     9  O    3.768347   3.745016   5.198202   0.000000
    10  H    4.100811   4.287812   5.857873   0.921621   0.000000
 Stoichiometry    C2H6BrO(1-)
 Framework group  C1[X(C2H6BrO)]
 Deg. of freedom    24
 Full point group                 C1      NOp   1
 Largest Abelian subgroup         C1      NOp   1
 Largest concise Abelian subgroup C1      NOp   1
                         Standard orientation:                         
 ---------------------------------------------------------------------
 Center     Atomic      Atomic             Coordinates (Angstroms)
 Number     Number       Type             X           Y           Z
 ---------------------------------------------------------------------
      1          6           0        1.446092   -0.201882    0.001935
      2          1           0        1.370834   -0.854768   -0.850670
      3          1           0        1.382045   -0.794342    0.898875
      4          1           0        2.426771    0.415191   -0.011037
      5          6           0        0.376739    0.789806   -0.023620
      6          1           0        0.465086    1.437813    0.835924
      7          1           0        0.460693    1.387969   -0.919072
      8         35           0       -1.464721   -0.103747    0.004991
      9          8           0        3.731927   -0.216654   -0.053417
     10          1           0        4.367390    0.244968    0.428743
 ---------------------------------------------------------------------
 Rotational constants (GHZ):     27.3552438      1.1300631      1.1009706
 Standard basis: VSTO-6G (5D, 7F)
 There are    28 symmetry adapted cartesian basis functions of A   symmetry.
 There are    27 symmetry adapted basis functions of A   symmetry.
    27 basis functions,   168 primitive gaussians,    28 cartesian basis functions
    14 alpha electrons       14 beta electrons
       nuclear repulsion energy        89.8396735215 Hartrees.
 Integral buffers will be    262144 words long.
 Regular integral format.
 Two-electron integral symmetry is turned off.
 Do NDO integrals.
 One-electron integrals computed using PRISM.
 NBasis=    27 RedAO= F EigKep=  0.00D+00  NBF=    27
 NBsUse=    27 1.00D-04 EigRej=  0.00D+00 NBFU=    27
 Initial guess from the checkpoint file:  "C:\G09W\gxx.chk"
 B after Tr=     0.000000    0.000000    0.000000
         Rot=    0.999980    0.005086   -0.000321   -0.003784 Ang=   0.73 deg.
 Overlap will be assumed to be unity.
 Keep J ints in memory in canonical form, NReq=1874650.
 Requested convergence on RMS density matrix=1.00D-08 within 128 cycles.
 Requested convergence on MAX density matrix=1.00D-06.
 Requested convergence on             energy=1.00D-06.
 No special actions if energy rises.
 SCF Done:  E(RPM6) = -0.844421517708E-01 A.U. after   14 cycles
            NFock= 13  Conv=0.29D-08     -V/T= 0.9938
 Calling FoFJK, ICntrl=      2127 FMM=F ISym2X=0 I1Cent= 0 IOpClX= 0 NMat=1 NMatS=1 NMatT=0.
 ***** Axes restored to original set *****
 -------------------------------------------------------------------
 Center     Atomic                   Forces (Hartrees/Bohr)
 Number     Number              X              Y              Z
 -------------------------------------------------------------------
      1        6           0.062045750   -0.005662213   -0.004007485
      2        1          -0.014496871   -0.008468731   -0.004615066
      3        1          -0.012148777    0.001395404   -0.011006201
      4        1          -0.031059191   -0.003088230   -0.007420597
      5        6          -0.005809898    0.004323493    0.006892483
      6        1           0.012351429    0.012483454    0.002145845
      7        1           0.010264685   -0.006254106    0.012901717
      8       35           0.005304765    0.002386141    0.004738604
      9        8          -0.032594935    0.011165939    0.001710504
     10        1           0.006143043   -0.008281152   -0.001339805
 -------------------------------------------------------------------
 Cartesian Forces:  Max     0.062045750 RMS     0.015894697

 GradGradGradGradGradGradGradGradGradGradGradGradGradGradGradGradGradGrad
 Berny optimization.
 FormGI is forming the generalized inverse of G from B-inverse, IUseBI=4.
 Internal  Forces:  Max     0.048407635 RMS     0.014948954
 Search for a saddle point.
 Step number   2 out of a maximum of   46
 All quantities printed in internal units (Hartrees-Bohrs-Radians)
 Swapping is turned off.
 Update second derivatives using D2CorX and points    1    2
 ITU=  0  0
     Eigenvalues ---   -0.00754  -0.00184  -0.00002   0.00439   0.02773
     Eigenvalues ---    0.03338   0.03472   0.04205   0.04698   0.06713
     Eigenvalues ---    0.08168   0.10594   0.10654   0.12933   0.13121
     Eigenvalues ---    0.15812   0.21375   0.21815   0.27628   0.27900
     Eigenvalues ---    0.28548   0.29642   0.32121   0.57424
 Eigenvectors required to have negative eigenvalues:
                          R5        R3        R8        A7        A6
   1                    0.70593  -0.44742  -0.26346  -0.25539   0.14865
                          R4        D7        A14       D5        D13
   1                    0.13877   0.13850   0.13563  -0.13055   0.10955
 RFO step:  Lambda0=1.237800239D-02 Lambda=-2.83073591D-02.
 Linear search not attempted -- option 19 set.
 Maximum step size (   0.300) exceeded in Quadratic search.
    -- Step size scaled by   0.371
 Iteration  1 RMS(Cart)=  0.09166332 RMS(Int)=  0.01731541
 Iteration  2 RMS(Cart)=  0.02111576 RMS(Int)=  0.00124587
 Iteration  3 RMS(Cart)=  0.00096425 RMS(Int)=  0.00063459
 Iteration  4 RMS(Cart)=  0.00000202 RMS(Int)=  0.00063459
 Iteration  5 RMS(Cart)=  0.00000000 RMS(Int)=  0.00063459
 Variable       Old X    -DE/DX   Delta X   Delta X   Delta X     New X
                                 (Linear)    (Quad)   (Total)
    R1        2.03430   0.00814   0.00000   0.01150   0.01150   2.04579
    R2        2.03496   0.00819   0.00000   0.00998   0.00998   2.04494
    R3        2.18970   0.04841   0.00000  -0.09903  -0.09903   2.09067
    R4        2.75642   0.03684   0.00000   0.04817   0.04817   2.80459
    R5        2.74138   0.02188   0.00000   0.22719   0.22719   2.96856
    R6        2.04102   0.01187   0.00000   0.01415   0.01415   2.05517
    R7        2.04115   0.01198   0.00000   0.01481   0.01481   2.05596
    R8        3.86828   0.00308   0.00000  -0.09715  -0.09715   3.77113
    R9        1.74161  -0.01031   0.00000  -0.03916  -0.03916   1.70245
    A1        1.89849  -0.00389   0.00000  -0.01371  -0.01477   1.88372
    A2        1.95334  -0.01290   0.00000  -0.05750  -0.05869   1.89465
    A3        1.92539   0.00920   0.00000   0.00859   0.00935   1.93474
    A4        1.93120  -0.01137   0.00000  -0.02908  -0.03077   1.90043
    A5        1.92308   0.00908   0.00000   0.00582   0.00581   1.92889
    A6        1.83196   0.01069   0.00000   0.08895   0.08851   1.92048
    A7        2.12918   0.03966   0.00000   0.02037   0.02037   2.14955
    A8        1.91134   0.01079   0.00000  -0.00390  -0.00397   1.90736
    A9        1.91139   0.01042   0.00000  -0.00607  -0.00613   1.90526
   A10        1.94173   0.01201   0.00000   0.02308   0.02304   1.96477
   A11        1.89773  -0.00563   0.00000  -0.01307  -0.01316   1.88457
   A12        1.90113  -0.01426   0.00000  -0.00121  -0.00126   1.89987
   A13        1.89995  -0.01397   0.00000   0.00043   0.00040   1.90035
   A14        1.96806   0.00228   0.00000   0.01168   0.01168   1.97975
    D1       -1.00445   0.01094   0.00000   0.07042   0.06830  -0.93615
    D2        1.11599  -0.01090   0.00000  -0.00713  -0.00557   1.11042
    D3       -3.09301   0.00021   0.00000   0.03621   0.03678  -3.05623
    D4       -3.14060   0.00077   0.00000   0.01675   0.01635  -3.12426
    D5       -1.06109   0.00670   0.00000  -0.00522  -0.00560  -1.06669
    D6        1.04003   0.00379   0.00000   0.00607   0.00567   1.04570
    D7        1.04614  -0.00611   0.00000   0.02457   0.02500   1.07114
    D8        3.12565  -0.00018   0.00000   0.00260   0.00305   3.12870
    D9       -1.05641  -0.00309   0.00000   0.01389   0.01432  -1.04209
   D10       -1.03350  -0.00341   0.00000   0.00526   0.00521  -1.02829
   D11        1.04601   0.00252   0.00000  -0.01671  -0.01673   1.02928
   D12       -3.13605  -0.00039   0.00000  -0.00542  -0.00547  -3.14152
   D13       -2.52810  -0.00003   0.00000   0.29793   0.29793  -2.23017
         Item               Value     Threshold  Converged?
 Maximum Force            0.048408     0.000450     NO 
 RMS     Force            0.014949     0.000300     NO 
 Maximum Displacement     0.401258     0.001800     NO 
 RMS     Displacement     0.107600     0.001200     NO 
 Predicted change in Energy=-5.244086D-03
 GradGradGradGradGradGradGradGradGradGradGradGradGradGradGradGradGradGrad

                          Input orientation:                          
 ---------------------------------------------------------------------
 Center     Atomic      Atomic             Coordinates (Angstroms)
 Number     Number       Type             X           Y           Z
 ---------------------------------------------------------------------
      1          6           0       -3.259249    0.532279   -0.168431
      2          1           0       -3.256354   -0.543260   -0.291731
      3          1           0       -3.108957    0.979625   -1.142242
      4          1           0       -4.249299    0.839684    0.217935
      5          6           0       -2.192096    0.959271    0.770446
      6          1           0       -2.229238    2.039697    0.889041
      7          1           0       -2.371549    0.508207    1.744104
      8         35           0       -0.369204    0.441451    0.144884
      9          8           0       -5.602470    0.446879   -0.476578
     10          1           0       -6.139649    1.151663   -0.638852
 ---------------------------------------------------------------------
                    Distance matrix (angstroms):
                    1          2          3          4          5
     1  C    0.000000
     2  H    1.082588   0.000000
     3  H    1.082134   1.750507   0.000000
     4  H    1.106333   1.777142   1.780461   0.000000
     5  C    1.484126   2.125668   2.121184   2.133460   0.000000
     6  H    2.109853   3.020076   2.454337   2.443575   1.087549
     7  H    2.108645   2.456235   3.016123   2.442338   1.087968
     8  Br   2.908398   3.081546   3.074504   3.901162   1.995595
     9  O    2.364938   2.553195   2.635249   1.570897   3.667188
    10  H    2.983561   3.362536   3.077027   2.098771   4.195988
                    6          7          8          9         10
     6  H    0.000000
     7  H    1.759786   0.000000
     8  Br   2.562789   2.563464   0.000000
     9  O    3.972490   3.920975   5.270040   0.000000
    10  H    4.291197   4.504564   5.866573   0.900897   0.000000
 Stoichiometry    C2H6BrO(1-)
 Framework group  C1[X(C2H6BrO)]
 Deg. of freedom    24
 Full point group                 C1      NOp   1
 Largest Abelian subgroup         C1      NOp   1
 Largest concise Abelian subgroup C1      NOp   1
                         Standard orientation:                         
 ---------------------------------------------------------------------
 Center     Atomic      Atomic             Coordinates (Angstroms)
 Number     Number       Type             X           Y           Z
 ---------------------------------------------------------------------
      1          6           0        1.445691   -0.111732    0.015985
      2          1           0        1.429235   -0.774230   -0.840065
      3          1           0        1.413806   -0.721240    0.909572
      4          1           0        2.395099    0.456108    0.003504
      5          6           0        0.293563    0.823213   -0.017330
      6          1           0        0.344686    1.486989    0.842642
      7          1           0        0.354349    1.433008   -0.916289
      8         35           0       -1.462651   -0.124262    0.002825
      9          8           0        3.805652   -0.230056   -0.081563
     10          1           0        4.374866    0.040108    0.562348
 ---------------------------------------------------------------------
 Rotational constants (GHZ):     26.0079371      1.1102635      1.0808459
 Standard basis: VSTO-6G (5D, 7F)
 There are    28 symmetry adapted cartesian basis functions of A   symmetry.
 There are    27 symmetry adapted basis functions of A   symmetry.
    27 basis functions,   168 primitive gaussians,    28 cartesian basis functions
    14 alpha electrons       14 beta electrons
       nuclear repulsion energy        89.3829405381 Hartrees.
 Integral buffers will be    262144 words long.
 Regular integral format.
 Two-electron integral symmetry is turned off.
 Do NDO integrals.
 One-electron integrals computed using PRISM.
 NBasis=    27 RedAO= F EigKep=  0.00D+00  NBF=    27
 NBsUse=    27 1.00D-04 EigRej=  0.00D+00 NBFU=    27
 Initial guess from the checkpoint file:  "C:\G09W\gxx.chk"
 B after Tr=     0.000000    0.000000    0.000000
         Rot=    0.999967   -0.007138    0.000211   -0.003946 Ang=  -0.93 deg.
 Overlap will be assumed to be unity.
 Keep J ints in memory in canonical form, NReq=1874650.
 Requested convergence on RMS density matrix=1.00D-08 within 128 cycles.
 Requested convergence on MAX density matrix=1.00D-06.
 Requested convergence on             energy=1.00D-06.
 No special actions if energy rises.
 SCF Done:  E(RPM6) = -0.888143620242E-01 A.U. after   13 cycles
            NFock= 12  Conv=0.96D-08     -V/T= 0.9934
 Calling FoFJK, ICntrl=      2127 FMM=F ISym2X=0 I1Cent= 0 IOpClX= 0 NMat=1 NMatS=1 NMatT=0.
 ***** Axes restored to original set *****
 -------------------------------------------------------------------
 Center     Atomic                   Forces (Hartrees/Bohr)
 Number     Number              X              Y              Z
 -------------------------------------------------------------------
      1        6           0.057961491   -0.005707173   -0.006732582
      2        1          -0.010341711   -0.006080879   -0.002840466
      3        1          -0.008819751    0.001254835   -0.007607776
      4        1          -0.032957781    0.001456219    0.000795987
      5        6          -0.014610113    0.004784696    0.006768376
      6        1           0.009202617    0.008464026    0.000837714
      7        1           0.007819935   -0.005077484    0.008325948
      8       35           0.009793006   -0.000334202    0.000786999
      9        8          -0.020641312    0.006446162   -0.000865459
     10        1           0.002593618   -0.005206201    0.000531258
 -------------------------------------------------------------------
 Cartesian Forces:  Max     0.057961491 RMS     0.014154148

 GradGradGradGradGradGradGradGradGradGradGradGradGradGradGradGradGradGrad
 Berny optimization.
 FormGI is forming the generalized inverse of G from B-inverse, IUseBI=4.
 Internal  Forces:  Max     0.046554830 RMS     0.011448968
 Search for a saddle point.
 Step number   3 out of a maximum of   46
 All quantities printed in internal units (Hartrees-Bohrs-Radians)
 Swapping is turned off.
 Update second derivatives using D2CorX and points    2    3
 ITU=  0  0  0
     Eigenvalues ---   -0.00643  -0.00006   0.00337   0.00440   0.02762
     Eigenvalues ---    0.03318   0.03537   0.04204   0.04762   0.06625
     Eigenvalues ---    0.09122   0.10545   0.10745   0.12919   0.13098
     Eigenvalues ---    0.15930   0.21373   0.21798   0.27625   0.27891
     Eigenvalues ---    0.28554   0.29635   0.32324   0.57369
 Eigenvectors required to have negative eigenvalues:
                          D13       R5        R3        A14       D3
   1                    0.90277  -0.23999   0.17824  -0.13022   0.11489
                          A7        D2        R8        D1        D5
   1                    0.10966   0.10917   0.10469   0.09637   0.06863
 RFO step:  Lambda0=5.815121629D-03 Lambda=-2.46011923D-02.
 Linear search not attempted -- option 19 set.
 Maximum step size (   0.300) exceeded in Quadratic search.
    -- Step size scaled by   0.774
 Iteration  1 RMS(Cart)=  0.09320887 RMS(Int)=  0.07662157
 Iteration  2 RMS(Cart)=  0.04088870 RMS(Int)=  0.04268367
 Iteration  3 RMS(Cart)=  0.03961749 RMS(Int)=  0.01015807
 Iteration  4 RMS(Cart)=  0.01139409 RMS(Int)=  0.00167878
 Iteration  5 RMS(Cart)=  0.00032494 RMS(Int)=  0.00164323
 Iteration  6 RMS(Cart)=  0.00000024 RMS(Int)=  0.00164323
 Variable       Old X    -DE/DX   Delta X   Delta X   Delta X     New X
                                 (Linear)    (Quad)   (Total)
    R1        2.04579   0.00634   0.00000   0.00343   0.00343   2.04922
    R2        2.04494   0.00614   0.00000   0.00562   0.00562   2.05056
    R3        2.09067   0.04655   0.00000   0.12661   0.12661   2.21728
    R4        2.80459   0.02161   0.00000  -0.01955  -0.01955   2.78504
    R5        2.96856   0.01538   0.00000  -0.09938  -0.09938   2.86919
    R6        2.05517   0.00819   0.00000   0.01676   0.01676   2.07193
    R7        2.05596   0.00827   0.00000   0.01614   0.01614   2.07210
    R8        3.77113   0.00879   0.00000   0.02913   0.02913   3.80025
    R9        1.70245  -0.00572   0.00000  -0.01834  -0.01834   1.68411
    A1        1.88372  -0.00330   0.00000   0.00475  -0.00198   1.88173
    A2        1.89465  -0.00860   0.00000  -0.07983  -0.08113   1.81352
    A3        1.93474   0.00712   0.00000   0.05973   0.05863   1.99337
    A4        1.90043  -0.00772   0.00000  -0.09480  -0.09577   1.80466
    A5        1.92889   0.00724   0.00000   0.05963   0.05873   1.98761
    A6        1.92048   0.00459   0.00000   0.04446   0.04494   1.96542
    A7        2.14955   0.02698   0.00000   0.15169   0.15169   2.30125
    A8        1.90736   0.00794   0.00000   0.03612   0.03510   1.94247
    A9        1.90526   0.00770   0.00000   0.03850   0.03748   1.94274
   A10        1.96477   0.00664   0.00000   0.01466   0.01475   1.97952
   A11        1.88457  -0.00354   0.00000   0.01578   0.01382   1.89840
   A12        1.89987  -0.00973   0.00000  -0.05186  -0.05177   1.84809
   A13        1.90035  -0.00952   0.00000  -0.05344  -0.05335   1.84700
   A14        1.97975   0.00205   0.00000   0.03302   0.03302   2.01277
    D1       -0.93615   0.00647   0.00000  -0.03335  -0.03766  -0.97381
    D2        1.11042  -0.00655   0.00000  -0.12472  -0.12040   0.99002
    D3       -3.05623   0.00033   0.00000  -0.08371  -0.08372  -3.13995
    D4       -3.12426   0.00044   0.00000  -0.00453  -0.00451  -3.12876
    D5       -1.06669   0.00522   0.00000   0.05772   0.05881  -1.00788
    D6        1.04570   0.00286   0.00000   0.02641   0.02697   1.07266
    D7        1.07114  -0.00475   0.00000  -0.08794  -0.08912   0.98202
    D8        3.12870   0.00003   0.00000  -0.02569  -0.02580   3.10290
    D9       -1.04209  -0.00232   0.00000  -0.05700  -0.05764  -1.09974
   D10       -1.02829  -0.00274   0.00000  -0.03684  -0.03728  -1.06557
   D11        1.02928   0.00204   0.00000   0.02541   0.02603   1.05531
   D12       -3.14152  -0.00031   0.00000  -0.00590  -0.00581   3.13586
   D13       -2.23017   0.00002   0.00000  -0.64397  -0.64397  -2.87414
         Item               Value     Threshold  Converged?
 Maximum Force            0.046555     0.000450     NO 
 RMS     Force            0.011449     0.000300     NO 
 Maximum Displacement     0.580574     0.001800     NO 
 RMS     Displacement     0.153760     0.001200     NO 
 Predicted change in Energy=-1.126572D-02
 GradGradGradGradGradGradGradGradGradGradGradGradGradGradGradGradGradGrad

                          Input orientation:                          
 ---------------------------------------------------------------------
 Center     Atomic      Atomic             Coordinates (Angstroms)
 Number     Number       Type             X           Y           Z
 ---------------------------------------------------------------------
      1          6           0       -3.190656    0.506477   -0.217596
      2          1           0       -3.245507   -0.571341   -0.323558
      3          1           0       -3.058187    0.931062   -1.207366
      4          1           0       -4.285380    0.817885    0.067570
      5          6           0       -2.195764    0.967122    0.767301
      6          1           0       -2.189484    2.060744    0.845303
      7          1           0       -2.391749    0.543743    1.759609
      8         35           0       -0.311144    0.437164    0.307405
      9          8           0       -5.618309    0.577233   -0.618467
     10          1           0       -6.291886    1.085407   -0.331626
 ---------------------------------------------------------------------
                    Distance matrix (angstroms):
                    1          2          3          4          5
     1  C    0.000000
     2  H    1.084402   0.000000
     3  H    1.085110   1.753116   0.000000
     4  H    1.173335   1.778838   1.773210   0.000000
     5  C    1.473779   2.158426   2.155083   2.208708   0.000000
     6  H    2.132568   3.067457   2.498856   2.557802   1.096419
     7  H    2.132834   2.512349   3.065468   2.554210   1.096510
     8  Br   2.927802   3.166336   3.175644   3.999628   2.011008
     9  O    2.461545   2.652618   2.650702   1.518309   3.712975
    10  H    3.156864   3.467752   3.353737   2.063248   4.242623
                    6          7          8          9         10
     6  H    0.000000
     7  H    1.782739   0.000000
     8  Br   2.540376   2.539522   0.000000
     9  O    4.012515   4.008373   5.389143   0.000000
    10  H    4.377916   4.458445   6.049616   0.891193   0.000000
 Stoichiometry    C2H6BrO(1-)
 Framework group  C1[X(C2H6BrO)]
 Deg. of freedom    24
 Full point group                 C1      NOp   1
 Largest Abelian subgroup         C1      NOp   1
 Largest concise Abelian subgroup C1      NOp   1
                         Standard orientation:                         
 ---------------------------------------------------------------------
 Center     Atomic      Atomic             Coordinates (Angstroms)
 Number     Number       Type             X           Y           Z
 ---------------------------------------------------------------------
      1          6           0        1.433317   -0.185551   -0.002816
      2          1           0        1.461316   -0.845540   -0.862791
      3          1           0        1.475848   -0.801230    0.889705
      4          1           0        2.480757    0.342968   -0.018723
      5          6           0        0.314452    0.773646   -0.013238
      6          1           0        0.339420    1.424164    0.868995
      7          1           0        0.334236    1.399234   -0.913562
      8         35           0       -1.493423   -0.106964    0.003064
      9          8           0        3.894683   -0.210270   -0.019264
     10          1           0        4.534160    0.377745    0.179564
 ---------------------------------------------------------------------
 Rotational constants (GHZ):     28.1100834      1.0648584      1.0394557
 Standard basis: VSTO-6G (5D, 7F)
 There are    28 symmetry adapted cartesian basis functions of A   symmetry.
 There are    27 symmetry adapted basis functions of A   symmetry.
    27 basis functions,   168 primitive gaussians,    28 cartesian basis functions
    14 alpha electrons       14 beta electrons
       nuclear repulsion energy        88.7524725643 Hartrees.
 Integral buffers will be    262144 words long.
 Regular integral format.
 Two-electron integral symmetry is turned off.
 Do NDO integrals.
 One-electron integrals computed using PRISM.
 NBasis=    27 RedAO= F EigKep=  0.00D+00  NBF=    27
 NBsUse=    27 1.00D-04 EigRej=  0.00D+00 NBFU=    27
 Initial guess from the checkpoint file:  "C:\G09W\gxx.chk"
 B after Tr=     0.000000    0.000000    0.000000
         Rot=    0.999979    0.006456   -0.000246    0.000149 Ang=   0.74 deg.
 Overlap will be assumed to be unity.
 Keep J ints in memory in canonical form, NReq=1874650.
 Requested convergence on RMS density matrix=1.00D-08 within 128 cycles.
 Requested convergence on MAX density matrix=1.00D-06.
 Requested convergence on             energy=1.00D-06.
 No special actions if energy rises.
 SCF Done:  E(RPM6) = -0.100513189261     A.U. after   13 cycles
            NFock= 12  Conv=0.83D-08     -V/T= 0.9925
 Calling FoFJK, ICntrl=      2127 FMM=F ISym2X=0 I1Cent= 0 IOpClX= 0 NMat=1 NMatS=1 NMatT=0.
 ***** Axes restored to original set *****
 -------------------------------------------------------------------
 Center     Atomic                   Forces (Hartrees/Bohr)
 Number     Number              X              Y              Z
 -------------------------------------------------------------------
      1        6           0.037321737   -0.003021324    0.000745544
      2        1          -0.004969932   -0.002479700   -0.000526242
      3        1          -0.004194381    0.001022940   -0.003088772
      4        1          -0.020702497   -0.001621071   -0.006318044
      5        6          -0.019976444    0.004349753    0.003459789
      6        1           0.005175837    0.002974512   -0.000081188
      7        1           0.004409149   -0.002478785    0.003140407
      8       35           0.010269716   -0.001759714   -0.000789987
      9        8          -0.008217281    0.003556165    0.003708831
     10        1           0.000884097   -0.000542776   -0.000250338
 -------------------------------------------------------------------
 Cartesian Forces:  Max     0.037321737 RMS     0.009377869

 GradGradGradGradGradGradGradGradGradGradGradGradGradGradGradGradGradGrad
 Berny optimization.
 FormGI is forming the generalized inverse of G from B-inverse, IUseBI=4.
 Internal  Forces:  Max     0.025831894 RMS     0.006412683
 Search for a saddle point.
 Step number   4 out of a maximum of   46
 All quantities printed in internal units (Hartrees-Bohrs-Radians)
 Swapping is turned off.
 Update second derivatives using D2CorX and points    2    3    4
 ITU=  0  0  0  0
     Eigenvalues ---   -0.00106  -0.00009   0.00241   0.00439   0.02757
     Eigenvalues ---    0.03334   0.03656   0.04203   0.04762   0.06612
     Eigenvalues ---    0.09156   0.10256   0.10502   0.12855   0.12915
     Eigenvalues ---    0.15901   0.21305   0.21780   0.27623   0.27884
     Eigenvalues ---    0.28497   0.29535   0.31187   0.57156
 Eigenvectors required to have negative eigenvalues:
                          D13       R5        R3        A14       D3
   1                    0.95620  -0.16238   0.11677  -0.10460   0.07737
                          D5        D1        D2        A2        D6
   1                    0.07062   0.06724   0.06200  -0.05520   0.05443
 RFO step:  Lambda0=3.170626730D-03 Lambda=-1.98656189D-02.
 Linear search not attempted -- option 19 set.
 Maximum step size (   0.300) exceeded in Quadratic search.
    -- Step size scaled by   0.478
 Iteration  1 RMS(Cart)=  0.11945666 RMS(Int)=  0.05100313
 Iteration  2 RMS(Cart)=  0.04138564 RMS(Int)=  0.01678616
 Iteration  3 RMS(Cart)=  0.01976512 RMS(Int)=  0.00108358
 Iteration  4 RMS(Cart)=  0.00092040 RMS(Int)=  0.00037506
 Iteration  5 RMS(Cart)=  0.00000175 RMS(Int)=  0.00037506
 Iteration  6 RMS(Cart)=  0.00000000 RMS(Int)=  0.00037506
 Variable       Old X    -DE/DX   Delta X   Delta X   Delta X     New X
                                 (Linear)    (Quad)   (Total)
    R1        2.04922   0.00277   0.00000  -0.00182  -0.00182   2.04740
    R2        2.05056   0.00271   0.00000   0.00052   0.00052   2.05108
    R3        2.21728   0.02583   0.00000   0.10511   0.10511   2.32239
    R4        2.78504   0.00471   0.00000  -0.03536  -0.03536   2.74968
    R5        2.86919   0.00440   0.00000  -0.16644  -0.16644   2.70275
    R6        2.07193   0.00299   0.00000   0.00392   0.00392   2.07586
    R7        2.07210   0.00301   0.00000   0.00343   0.00343   2.07554
    R8        3.80025   0.01027   0.00000   0.07329   0.07329   3.87355
    R9        1.68411  -0.00106   0.00000   0.00483   0.00483   1.68894
    A1        1.88173  -0.00163   0.00000   0.00092  -0.00009   1.88164
    A2        1.81352  -0.00308   0.00000  -0.01371  -0.01350   1.80002
    A3        1.99337   0.00326   0.00000   0.02528   0.02477   2.01814
    A4        1.80466  -0.00275   0.00000  -0.03220  -0.03196   1.77270
    A5        1.98761   0.00354   0.00000   0.02858   0.02795   2.01556
    A6        1.96542  -0.00048   0.00000  -0.01742  -0.01718   1.94824
    A7        2.30125   0.02159   0.00000   0.18710   0.18710   2.48835
    A8        1.94247   0.00384   0.00000   0.02650   0.02590   1.96836
    A9        1.94274   0.00374   0.00000   0.02806   0.02747   1.97021
   A10        1.97952   0.00237   0.00000  -0.00005   0.00010   1.97962
   A11        1.89840  -0.00156   0.00000   0.00943   0.00830   1.90669
   A12        1.84809  -0.00471   0.00000  -0.03406  -0.03393   1.81417
   A13        1.84700  -0.00459   0.00000  -0.03495  -0.03481   1.81220
   A14        2.01277  -0.00023   0.00000  -0.01286  -0.01286   1.99991
    D1       -0.97381   0.00184   0.00000  -0.03320  -0.03325  -1.00706
    D2        0.99002  -0.00206   0.00000  -0.04895  -0.04905   0.94097
    D3       -3.13995   0.00018   0.00000  -0.04496  -0.04481   3.09842
    D4       -3.12876   0.00023   0.00000  -0.01075  -0.01079  -3.13956
    D5       -1.00788   0.00353   0.00000   0.03932   0.03992  -0.96797
    D6        1.07266   0.00192   0.00000   0.01427   0.01455   1.08721
    D7        0.98202  -0.00327   0.00000  -0.05768  -0.05830   0.92372
    D8        3.10290   0.00002   0.00000  -0.00761  -0.00760   3.09530
    D9       -1.09974  -0.00159   0.00000  -0.03266  -0.03297  -1.13270
   D10       -1.06557  -0.00183   0.00000  -0.02342  -0.02371  -1.08928
   D11        1.05531   0.00147   0.00000   0.02665   0.02700   1.08231
   D12        3.13586  -0.00014   0.00000   0.00160   0.00163   3.13749
   D13       -2.87414   0.00000   0.00000  -0.48220  -0.48220   2.92685
         Item               Value     Threshold  Converged?
 Maximum Force            0.025832     0.000450     NO 
 RMS     Force            0.006413     0.000300     NO 
 Maximum Displacement     0.513932     0.001800     NO 
 RMS     Displacement     0.139961     0.001200     NO 
 Predicted change in Energy=-7.410655D-03
 GradGradGradGradGradGradGradGradGradGradGradGradGradGradGradGradGradGrad

                          Input orientation:                          
 ---------------------------------------------------------------------
 Center     Atomic      Atomic             Coordinates (Angstroms)
 Number     Number       Type             X           Y           Z
 ---------------------------------------------------------------------
      1          6           0       -3.143831    0.477384   -0.285198
      2          1           0       -3.211143   -0.600676   -0.369423
      3          1           0       -2.977293    0.878340   -1.279964
      4          1           0       -4.306923    0.814240   -0.075242
      5          6           0       -2.247100    0.973250    0.747864
      6          1           0       -2.216225    2.070363    0.793506
      7          1           0       -2.482390    0.575931    1.744407
      8         35           0       -0.290764    0.435789    0.455406
      9          8           0       -5.626199    0.744186   -0.623115
     10          1           0       -6.276198    0.986690   -0.059664
 ---------------------------------------------------------------------
                    Distance matrix (angstroms):
                    1          2          3          4          5
     1  C    0.000000
     2  H    1.083438   0.000000
     3  H    1.085384   1.752501   0.000000
     4  H    1.228957   1.813633   1.795377   0.000000
     5  C    1.455070   2.157534   2.157377   2.223883   0.000000
     6  H    2.135799   3.078427   2.509865   2.589128   1.098495
     7  H    2.136940   2.526611   3.079481   2.587824   1.098327
     8  Br   2.947918   3.206746   3.228746   4.068703   2.049792
     9  O    2.519429   2.775880   2.732426   1.430232   3.653815
    10  H    3.181506   3.465580   3.519040   1.976873   4.109247
                    6          7          8          9         10
     6  H    0.000000
     7  H    1.791196   0.000000
     8  Br   2.548243   2.546446   0.000000
     9  O    3.923453   3.939163   5.452081   0.000000
    10  H    4.287847   4.220945   6.032761   0.893747   0.000000
 Stoichiometry    C2H6BrO(1-)
 Framework group  C1[X(C2H6BrO)]
 Deg. of freedom    24
 Full point group                 C1      NOp   1
 Largest Abelian subgroup         C1      NOp   1
 Largest concise Abelian subgroup C1      NOp   1
                         Standard orientation:                         
 ---------------------------------------------------------------------
 Center     Atomic      Atomic             Coordinates (Angstroms)
 Number     Number       Type             X           Y           Z
 ---------------------------------------------------------------------
      1          6           0        1.422898   -0.312760   -0.008697
      2          1           0        1.441286   -0.949101   -0.885379
      3          1           0        1.468724   -0.952512    0.866903
      4          1           0        2.544142    0.190364   -0.005271
      5          6           0        0.379885    0.701618    0.011007
      6          1           0        0.405547    1.320468    0.918232
      7          1           0        0.401364    1.353541   -0.872653
      8         35           0       -1.515676   -0.078346   -0.001422
      9          8           0        3.936035   -0.137454    0.021796
     10          1           0        4.482604    0.545843   -0.160279
 ---------------------------------------------------------------------
 Rotational constants (GHZ):     30.0991954      1.0419987      1.0201406
 Standard basis: VSTO-6G (5D, 7F)
 There are    28 symmetry adapted cartesian basis functions of A   symmetry.
 There are    27 symmetry adapted basis functions of A   symmetry.
    27 basis functions,   168 primitive gaussians,    28 cartesian basis functions
    14 alpha electrons       14 beta electrons
       nuclear repulsion energy        88.5368417502 Hartrees.
 Integral buffers will be    262144 words long.
 Regular integral format.
 Two-electron integral symmetry is turned off.
 Do NDO integrals.
 One-electron integrals computed using PRISM.
 NBasis=    27 RedAO= F EigKep=  0.00D+00  NBF=    27
 NBsUse=    27 1.00D-04 EigRej=  0.00D+00 NBFU=    27
 Initial guess from the checkpoint file:  "C:\G09W\gxx.chk"
 B after Tr=     0.000000    0.000000    0.000000
         Rot=    0.999976   -0.006571   -0.000036    0.002035 Ang=  -0.79 deg.
 Overlap will be assumed to be unity.
 Keep J ints in memory in canonical form, NReq=1874650.
 Requested convergence on RMS density matrix=1.00D-08 within 128 cycles.
 Requested convergence on MAX density matrix=1.00D-06.
 Requested convergence on             energy=1.00D-06.
 No special actions if energy rises.
 SCF Done:  E(RPM6) = -0.108229639669     A.U. after   13 cycles
            NFock= 12  Conv=0.90D-08     -V/T= 0.9920
 Calling FoFJK, ICntrl=      2127 FMM=F ISym2X=0 I1Cent= 0 IOpClX= 0 NMat=1 NMatS=1 NMatT=0.
 ***** Axes restored to original set *****
 -------------------------------------------------------------------
 Center     Atomic                   Forces (Hartrees/Bohr)
 Number     Number              X              Y              Z
 -------------------------------------------------------------------
      1        6           0.031860413   -0.004543883    0.000492846
      2        1          -0.004324117   -0.001168566    0.000521678
      3        1          -0.003482273    0.001444450   -0.001179465
      4        1          -0.021917080   -0.001532774   -0.008388928
      5        6          -0.017119385    0.004534660    0.002501190
      6        1           0.004265784    0.001257831   -0.000387525
      7        1           0.003756481   -0.001998882    0.001546566
      8       35           0.007548506   -0.001210602    0.000159180
      9        8          -0.002096871    0.003037168    0.003615609
     10        1           0.001508541    0.000180600    0.001118849
 -------------------------------------------------------------------
 Cartesian Forces:  Max     0.031860413 RMS     0.008314730

 GradGradGradGradGradGradGradGradGradGradGradGradGradGradGradGradGradGrad
 Berny optimization.
 FormGI is forming the generalized inverse of G from B-inverse, IUseBI=4.
 Internal  Forces:  Max     0.021136761 RMS     0.005152037
 Search for a saddle point.
 Step number   5 out of a maximum of   46
 All quantities printed in internal units (Hartrees-Bohrs-Radians)
 Swapping is turned off.
 Update second derivatives using D2CorX and points    4    5
 ITU=  0  0  0  0  0
     Eigenvalues ---   -0.00216   0.00000   0.00191   0.00439   0.02759
     Eigenvalues ---    0.03345   0.03649   0.04202   0.04764   0.06581
     Eigenvalues ---    0.09127   0.10236   0.10528   0.12768   0.12917
     Eigenvalues ---    0.15865   0.21263   0.21772   0.27624   0.27887
     Eigenvalues ---    0.28497   0.29505   0.31018   0.57123
 Eigenvectors required to have negative eigenvalues:
                          R5        A7        D13       R3        A14
   1                   -0.63667   0.39044  -0.36469   0.33416  -0.19963
                          D7        R8        D5        D1        D3
   1                   -0.14743   0.14476   0.12335  -0.11362  -0.11139
 RFO step:  Lambda0=1.787889858D-02 Lambda=-7.99791469D-03.
 Linear search not attempted -- option 19 set.
 Maximum step size (   0.300) exceeded in Quadratic search.
    -- Step size scaled by   0.521
 Iteration  1 RMS(Cart)=  0.10790320 RMS(Int)=  0.04522456
 Iteration  2 RMS(Cart)=  0.04179840 RMS(Int)=  0.00962595
 Iteration  3 RMS(Cart)=  0.01050563 RMS(Int)=  0.00034321
 Iteration  4 RMS(Cart)=  0.00029226 RMS(Int)=  0.00015449
 Iteration  5 RMS(Cart)=  0.00000021 RMS(Int)=  0.00015449
 Variable       Old X    -DE/DX   Delta X   Delta X   Delta X     New X
                                 (Linear)    (Quad)   (Total)
    R1        2.04740   0.00139   0.00000   0.01200   0.01200   2.05941
    R2        2.05108   0.00108   0.00000   0.00677   0.00677   2.05785
    R3        2.32239   0.02114   0.00000  -0.08516  -0.08516   2.23723
    R4        2.74968   0.00264   0.00000   0.02429   0.02429   2.77397
    R5        2.70275  -0.00143   0.00000   0.23074   0.23074   2.93349
    R6        2.07586   0.00136   0.00000   0.00323   0.00323   2.07909
    R7        2.07554   0.00132   0.00000   0.00414   0.00414   2.07967
    R8        3.87355   0.00750   0.00000  -0.02129  -0.02129   3.85225
    R9        1.68894  -0.00034   0.00000  -0.02146  -0.02146   1.66748
    A1        1.88164  -0.00056   0.00000  -0.02487  -0.02484   1.85680
    A2        1.80002  -0.00237   0.00000  -0.02706  -0.02698   1.77304
    A3        2.01814   0.00232   0.00000   0.00063   0.00073   2.01888
    A4        1.77270  -0.00200   0.00000   0.01857   0.01813   1.79083
    A5        2.01556   0.00224   0.00000   0.00027  -0.00025   2.01531
    A6        1.94824  -0.00067   0.00000   0.03180   0.03154   1.97978
    A7        2.48835   0.01809   0.00000  -0.13356  -0.13356   2.35479
    A8        1.96836   0.00262   0.00000  -0.00275  -0.00278   1.96559
    A9        1.97021   0.00255   0.00000  -0.00629  -0.00632   1.96389
   A10        1.97962   0.00187   0.00000  -0.00572  -0.00572   1.97390
   A11        1.90669  -0.00080   0.00000  -0.00378  -0.00382   1.90287
   A12        1.81417  -0.00362   0.00000   0.00800   0.00800   1.82217
   A13        1.81220  -0.00360   0.00000   0.01266   0.01266   1.82486
   A14        1.99991  -0.00313   0.00000   0.06133   0.06133   2.06124
    D1       -1.00706   0.00091   0.00000   0.16762   0.16758  -0.83948
    D2        0.94097  -0.00110   0.00000   0.13863   0.13828   1.07926
    D3        3.09842   0.00000   0.00000   0.16652   0.16691  -3.01785
    D4       -3.13956   0.00037   0.00000   0.00883   0.00883  -3.13073
    D5       -0.96797   0.00342   0.00000  -0.00348  -0.00346  -0.97143
    D6        1.08721   0.00189   0.00000   0.00444   0.00445   1.09165
    D7        0.92372  -0.00320   0.00000   0.04448   0.04452   0.96824
    D8        3.09530  -0.00015   0.00000   0.03216   0.03223   3.12754
    D9       -1.13270  -0.00168   0.00000   0.04009   0.04014  -1.09256
   D10       -1.08928  -0.00162   0.00000  -0.00242  -0.00249  -1.09177
   D11        1.08231   0.00143   0.00000  -0.01474  -0.01479   1.06752
   D12        3.13749  -0.00010   0.00000  -0.00681  -0.00688   3.13061
   D13        2.92685  -0.00009   0.00000   0.48550   0.48550  -2.87083
         Item               Value     Threshold  Converged?
 Maximum Force            0.021137     0.000450     NO 
 RMS     Force            0.005152     0.000300     NO 
 Maximum Displacement     0.538918     0.001800     NO 
 RMS     Displacement     0.145769     0.001200     NO 
 Predicted change in Energy= 5.334683D-03
 GradGradGradGradGradGradGradGradGradGradGradGradGradGradGradGradGradGrad

                          Input orientation:                          
 ---------------------------------------------------------------------
 Center     Atomic      Atomic             Coordinates (Angstroms)
 Number     Number       Type             X           Y           Z
 ---------------------------------------------------------------------
      1          6           0       -3.169802    0.528103   -0.224721
      2          1           0       -3.272154   -0.551497   -0.332563
      3          1           0       -3.031850    0.925478   -1.229167
      4          1           0       -4.280931    0.848106    0.029418
      5          6           0       -2.190376    0.977647    0.771991
      6          1           0       -2.135782    2.073928    0.847099
      7          1           0       -2.383164    0.558733    1.771230
      8         35           0       -0.283740    0.403770    0.334969
      9          8           0       -5.676605    0.537102   -0.574832
     10          1           0       -6.353661    1.054127   -0.344848
 ---------------------------------------------------------------------
                    Distance matrix (angstroms):
                    1          2          3          4          5
     1  C    0.000000
     2  H    1.089790   0.000000
     3  H    1.088967   1.744448   0.000000
     4  H    1.183890   1.762825   1.774888   0.000000
     5  C    1.467924   2.174526   2.171506   2.222300   0.000000
     6  H    2.146525   3.094479   2.536288   2.602481   1.100206
     7  H    2.145590   2.539460   3.091550   2.592135   1.100516
     8  Br   2.942460   3.207608   3.204811   4.033403   2.038525
     9  O    2.531150   2.650496   2.752039   1.552336   3.763218
    10  H    3.229254   3.474747   3.439912   2.116300   4.311162
                    6          7          8          9         10
     6  H    0.000000
     7  H    1.791936   0.000000
     8  Br   2.545931   2.548419   0.000000
     9  O    4.113533   4.043666   5.470696   0.000000
    10  H    4.500137   4.526372   6.142398   0.882390   0.000000
 Stoichiometry    C2H6BrO(1-)
 Framework group  C1[X(C2H6BrO)]
 Deg. of freedom    24
 Full point group                 C1      NOp   1
 Largest Abelian subgroup         C1      NOp   1
 Largest concise Abelian subgroup C1      NOp   1
                         Standard orientation:                         
 ---------------------------------------------------------------------
 Center     Atomic      Atomic             Coordinates (Angstroms)
 Number     Number       Type             X           Y           Z
 ---------------------------------------------------------------------
      1          6           0        1.429040   -0.187859    0.052832
      2          1           0        1.502078   -0.872438   -0.791952
      3          1           0        1.467158   -0.802783    0.950755
      4          1           0        2.498814    0.319138    0.041244
      5          6           0        0.324809    0.777632   -0.004632
      6          1           0        0.304728    1.449849    0.866101
      7          1           0        0.340720    1.382029   -0.924189
      8         35           0       -1.511747   -0.107041   -0.004691
      9          8           0        3.957901   -0.202181   -0.053834
     10          1           0        4.611350    0.349443    0.163714
 ---------------------------------------------------------------------
 Rotational constants (GHZ):     27.8751227      1.0363077      1.0122398
 Standard basis: VSTO-6G (5D, 7F)
 There are    28 symmetry adapted cartesian basis functions of A   symmetry.
 There are    27 symmetry adapted basis functions of A   symmetry.
    27 basis functions,   168 primitive gaussians,    28 cartesian basis functions
    14 alpha electrons       14 beta electrons
       nuclear repulsion energy        88.2777472107 Hartrees.
 Integral buffers will be    262144 words long.
 Regular integral format.
 Two-electron integral symmetry is turned off.
 Do NDO integrals.
 One-electron integrals computed using PRISM.
 NBasis=    27 RedAO= F EigKep=  0.00D+00  NBF=    27
 NBsUse=    27 1.00D-04 EigRej=  0.00D+00 NBFU=    27
 Initial guess from the checkpoint file:  "C:\G09W\gxx.chk"
 B after Tr=     0.000000    0.000000    0.000000
         Rot=    0.999885    0.015003    0.000367   -0.002033 Ang=   1.74 deg.
 Overlap will be assumed to be unity.
 Keep J ints in memory in canonical form, NReq=1874650.
 Requested convergence on RMS density matrix=1.00D-08 within 128 cycles.
 Requested convergence on MAX density matrix=1.00D-06.
 Requested convergence on             energy=1.00D-06.
 No special actions if energy rises.
 SCF Done:  E(RPM6) = -0.103202075247     A.U. after   13 cycles
            NFock= 12  Conv=0.87D-08     -V/T= 0.9923
 Calling FoFJK, ICntrl=      2127 FMM=F ISym2X=0 I1Cent= 0 IOpClX= 0 NMat=1 NMatS=1 NMatT=0.
 ***** Axes restored to original set *****
 -------------------------------------------------------------------
 Center     Atomic                   Forces (Hartrees/Bohr)
 Number     Number              X              Y              Z
 -------------------------------------------------------------------
      1        6           0.026559183   -0.003059148   -0.002035003
      2        1          -0.003012143   -0.000490150    0.001514308
      3        1          -0.002279524    0.001683991   -0.000038205
      4        1          -0.018539082   -0.003085015   -0.006327747
      5        6          -0.014158843    0.003780768    0.002740203
      6        1           0.003624533    0.000214810   -0.000858976
      7        1           0.003389652   -0.001802370    0.000253969
      8       35           0.004439101   -0.000619258    0.000103661
      9        8           0.000230492    0.002055358    0.003704313
     10        1          -0.000253369    0.001321014    0.000943476
 -------------------------------------------------------------------
 Cartesian Forces:  Max     0.026559183 RMS     0.006888598

 GradGradGradGradGradGradGradGradGradGradGradGradGradGradGradGradGradGrad
 Berny optimization.
 FormGI is forming the generalized inverse of G from B-inverse, IUseBI=4.
 Internal  Forces:  Max     0.017139279 RMS     0.004340604
 Search for a saddle point.
 Step number   6 out of a maximum of   46
 All quantities printed in internal units (Hartrees-Bohrs-Radians)
 Swapping is turned off.
 Update second derivatives using D2CorX and points    4    5    6
 ITU=  0  0  0  0  0  0
     Eigenvalues ---   -0.00346   0.00146   0.00375   0.00444   0.02743
     Eigenvalues ---    0.03408   0.03657   0.04203   0.04699   0.06865
     Eigenvalues ---    0.08699   0.09918   0.10470   0.12595   0.12916
     Eigenvalues ---    0.15729   0.21270   0.21792   0.27623   0.27881
     Eigenvalues ---    0.28436   0.29185   0.30192   0.57112
 Eigenvectors required to have negative eigenvalues:
                          R5        A7        D13       R3        D3
   1                    0.61748  -0.31194   0.31142  -0.30560   0.24965
                          D1        D2        A14       D7        R8
   1                    0.23787   0.22456   0.22079   0.14894  -0.14696
 RFO step:  Lambda0=1.337265097D-02 Lambda=-9.77654372D-03.
 Linear search not attempted -- option 19 set.
 Maximum step size (   0.300) exceeded in Quadratic search.
    -- Step size scaled by   0.701
 Iteration  1 RMS(Cart)=  0.08844418 RMS(Int)=  0.06446141
 Iteration  2 RMS(Cart)=  0.06721790 RMS(Int)=  0.01170358
 Iteration  3 RMS(Cart)=  0.01134723 RMS(Int)=  0.00032775
 Iteration  4 RMS(Cart)=  0.00037948 RMS(Int)=  0.00014870
 Iteration  5 RMS(Cart)=  0.00000022 RMS(Int)=  0.00014870
 Variable       Old X    -DE/DX   Delta X   Delta X   Delta X     New X
                                 (Linear)    (Quad)   (Total)
    R1        2.05941   0.00062   0.00000   0.01312   0.01312   2.07253
    R2        2.05785   0.00036   0.00000   0.00257   0.00257   2.06041
    R3        2.23723   0.01714   0.00000  -0.06149  -0.06149   2.17574
    R4        2.77397   0.00020   0.00000   0.02505   0.02505   2.79903
    R5        2.93349  -0.00247   0.00000   0.23852   0.23852   3.17201
    R6        2.07909   0.00034   0.00000   0.00142   0.00142   2.08051
    R7        2.07967   0.00032   0.00000   0.00341   0.00341   2.08308
    R8        3.85225   0.00430   0.00000  -0.05273  -0.05273   3.79953
    R9        1.66748   0.00121   0.00000  -0.01615  -0.01615   1.65133
    A1        1.85680   0.00024   0.00000  -0.01645  -0.01649   1.84031
    A2        1.77304  -0.00109   0.00000  -0.01832  -0.01847   1.75457
    A3        2.01888   0.00143   0.00000  -0.00965  -0.00999   2.00889
    A4        1.79083  -0.00077   0.00000   0.06457   0.06450   1.85533
    A5        2.01531   0.00155   0.00000  -0.00653  -0.00699   2.00832
    A6        1.97978  -0.00184   0.00000  -0.00740  -0.00767   1.97211
    A7        2.35479   0.01699   0.00000  -0.01507  -0.01507   2.33972
    A8        1.96559   0.00212   0.00000   0.00305   0.00305   1.96863
    A9        1.96389   0.00208   0.00000  -0.00414  -0.00414   1.95976
   A10        1.97390   0.00153   0.00000   0.00488   0.00488   1.97878
   A11        1.90287  -0.00036   0.00000  -0.00250  -0.00250   1.90037
   A12        1.82217  -0.00305   0.00000  -0.00392  -0.00393   1.81825
   A13        1.82486  -0.00305   0.00000   0.00247   0.00247   1.82733
   A14        2.06124  -0.00185   0.00000   0.11910   0.11910   2.18034
    D1       -0.83948   0.00011   0.00000   0.36415   0.36443  -0.47506
    D2        1.07926  -0.00020   0.00000   0.36019   0.35971   1.43897
    D3       -3.01785   0.00011   0.00000   0.39231   0.39251  -2.62534
    D4       -3.13073   0.00029   0.00000   0.02609   0.02610  -3.10463
    D5       -0.97143   0.00307   0.00000   0.02190   0.02192  -0.94951
    D6        1.09165   0.00167   0.00000   0.02558   0.02560   1.11725
    D7        0.96824  -0.00280   0.00000   0.06473   0.06466   1.03289
    D8        3.12754  -0.00003   0.00000   0.06055   0.06047  -3.09518
    D9       -1.09256  -0.00143   0.00000   0.06423   0.06415  -1.02842
   D10       -1.09177  -0.00151   0.00000  -0.01088  -0.01081  -1.10258
   D11        1.06752   0.00127   0.00000  -0.01506  -0.01499   1.05253
   D12        3.13061  -0.00013   0.00000  -0.01138  -0.01132   3.11929
   D13       -2.87083   0.00003   0.00000   0.41278   0.41278  -2.45806
         Item               Value     Threshold  Converged?
 Maximum Force            0.017139     0.000450     NO 
 RMS     Force            0.004341     0.000300     NO 
 Maximum Displacement     0.456432     0.001800     NO 
 RMS     Displacement     0.147236     0.001200     NO 
 Predicted change in Energy= 2.805899D-03
 GradGradGradGradGradGradGradGradGradGradGradGradGradGradGradGradGradGrad

                          Input orientation:                          
 ---------------------------------------------------------------------
 Center     Atomic      Atomic             Coordinates (Angstroms)
 Number     Number       Type             X           Y           Z
 ---------------------------------------------------------------------
      1          6           0       -3.161140    0.613682   -0.250758
      2          1           0       -3.343424   -0.462000   -0.362599
      3          1           0       -2.947615    0.978007   -1.255985
      4          1           0       -4.221278    0.980976    0.007733
      5          6           0       -2.156596    0.977421    0.775148
      6          1           0       -2.030503    2.065944    0.881567
[...]
 Vibration     3          0.652              1.796              1.885
 Vibration     4          0.676              1.723              1.577
 Vibration     5          0.708              1.630              1.297
 Vibration     6          0.719              1.597              1.215
 Vibration     7          0.867              1.223              0.628
                       Q            Log10(Q)             Ln(Q)
 Total Bot       0.242326D-15        -15.615601        -35.956250
 Total V=0       0.114238D+15         14.057809         32.369301
 Vib (Bot)       0.261569D-28        -28.582413        -65.813439
 Vib (Bot)    1  0.145879D+01          0.163994          0.377610
 Vib (Bot)    2  0.953126D+00         -0.020850         -0.048008
 Vib (Bot)    3  0.859341D+00         -0.065835         -0.151590
 Vib (Bot)    4  0.706797D+00         -0.150705         -0.347012
 Vib (Bot)    5  0.581840D+00         -0.235196         -0.541560
 Vib (Bot)    6  0.547468D+00         -0.261641         -0.602450
 Vib (Bot)    7  0.317365D+00         -0.498441         -1.147703
 Vib (V=0)       0.123309D+02          1.090996          2.512112
 Vib (V=0)    1  0.204210D+01          0.310077          0.713980
 Vib (V=0)    2  0.157631D+01          0.197642          0.455088
 Vib (V=0)    3  0.149422D+01          0.174414          0.401602
 Vib (V=0)    4  0.136577D+01          0.135378          0.311720
 Vib (V=0)    5  0.126716D+01          0.102832          0.236780
 Vib (V=0)    6  0.124143D+01          0.093923          0.216266
 Vib (V=0)    7  0.109222D+01          0.038309          0.088209
 Electronic      0.100000D+01          0.000000          0.000000
 Translational   0.549051D+08          7.739613         17.821117
 Rotational      0.168733D+06          5.227200         12.036072
 ***** Axes restored to original set *****
 -------------------------------------------------------------------
 Center     Atomic                   Forces (Hartrees/Bohr)
 Number     Number              X              Y              Z
 -------------------------------------------------------------------
      1        6          -0.000009441   -0.000003000   -0.000007532
      2        1           0.000004920    0.000001086   -0.000002917
      3        1          -0.000006791    0.000003217   -0.000003052
      4        1           0.000001297   -0.000007418    0.000003341
      5        6          -0.000041764    0.000001975    0.000008197
      6        1           0.000009405    0.000002082    0.000004407
      7        1           0.000001042   -0.000001354    0.000005913
      8       35           0.000018872   -0.000003147    0.000004189
      9        8           0.000029368    0.000009390   -0.000024957
     10        1          -0.000006907   -0.000002831    0.000012411
 -------------------------------------------------------------------
 Cartesian Forces:  Max     0.000041764 RMS     0.000012186
 FormGI is forming the generalized inverse of G from B-inverse, IUseBI=4.

 GradGradGradGradGradGradGradGradGradGradGradGradGradGradGradGradGradGrad
 Berny optimization.
 Internal  Forces:  Max     0.000041620 RMS     0.000011660
 Search for a saddle point.
 Step number   1 out of a maximum of    2
 All quantities printed in internal units (Hartrees-Bohrs-Radians)
 Swapping is turned off.
 Second derivative matrix not updated -- analytic derivatives used.
 ITU=  0
     Eigenvalues ---   -0.05540   0.00276   0.00562   0.00834   0.01283
     Eigenvalues ---    0.02217   0.02925   0.03077   0.04474   0.06622
     Eigenvalues ---    0.06957   0.09264   0.09692   0.11380   0.12334
     Eigenvalues ---    0.15395   0.17598   0.20001   0.22760   0.25766
     Eigenvalues ---    0.26548   0.26894   0.28571   0.50044
 Eigenvectors required to have negative eigenvalues:
                          A7        R5        R3        R8        A14
   1                    0.63810  -0.56249   0.29110  -0.18164  -0.16812
                          D4        D13       D8        A10       R4
   1                    0.13353   0.12716  -0.12005   0.11992  -0.10681
 Angle between quadratic step and forces=  65.28 degrees.
 Linear search not attempted -- option 19 set.
 Iteration  1 RMS(Cart)=  0.00042496 RMS(Int)=  0.00000019
 Iteration  2 RMS(Cart)=  0.00000016 RMS(Int)=  0.00000008
 Variable       Old X    -DE/DX   Delta X   Delta X   Delta X     New X
                                 (Linear)    (Quad)   (Total)
    R1        2.04687   0.00000   0.00000  -0.00004  -0.00004   2.04683
    R2        2.04491   0.00000   0.00000  -0.00003  -0.00003   2.04489
    R3        2.31250  -0.00002   0.00000   0.00068   0.00068   2.31318
    R4        2.77345   0.00002   0.00000  -0.00021  -0.00021   2.77324
    R5        2.96866  -0.00002   0.00000  -0.00195  -0.00195   2.96671
    R6        2.06525   0.00000   0.00000  -0.00005  -0.00005   2.06520
    R7        2.06994   0.00000   0.00000  -0.00005  -0.00005   2.06989
    R8        4.12270   0.00002   0.00000   0.00124   0.00124   4.12394
    R9        1.68309   0.00000   0.00000   0.00009   0.00009   1.68319
    A1        1.92947   0.00000   0.00000   0.00006   0.00006   1.92953
    A2        1.88104   0.00001   0.00000   0.00006   0.00006   1.88110
    A3        2.02420   0.00000   0.00000   0.00018   0.00018   2.02437
    A4        1.90011   0.00000   0.00000  -0.00022  -0.00022   1.89988
    A5        2.02967   0.00001   0.00000   0.00014   0.00014   2.02981
    A6        1.67297  -0.00002   0.00000  -0.00031  -0.00031   1.67266
    A7        2.20811  -0.00004   0.00000  -0.00001  -0.00001   2.20810
    A8        2.04028   0.00000   0.00000   0.00025   0.00025   2.04053
    A9        2.03485   0.00001   0.00000   0.00029   0.00029   2.03513
   A10        1.88612   0.00000   0.00000  -0.00016  -0.00016   1.88596
   A11        1.98026   0.00000   0.00000   0.00028   0.00027   1.98054
   A12        1.72405   0.00000   0.00000  -0.00052  -0.00052   1.72353
   A13        1.73635   0.00000   0.00000  -0.00051  -0.00051   1.73584
   A14        2.10361   0.00002   0.00000   0.00081   0.00081   2.10443
    D1        2.07353   0.00000   0.00000   0.00040   0.00040   2.07394
    D2       -2.11626   0.00000   0.00000   0.00038   0.00038  -2.11588
    D3       -0.01541   0.00000   0.00000   0.00032   0.00032  -0.01508
    D4        3.08141   0.00000   0.00000  -0.00099  -0.00099   3.08041
    D5       -0.77818   0.00000   0.00000   0.00021   0.00021  -0.77797
    D6        1.15779   0.00000   0.00000  -0.00037  -0.00037   1.15742
    D7        0.76792  -0.00001   0.00000  -0.00144  -0.00144   0.76648
    D8       -3.09166   0.00000   0.00000  -0.00024  -0.00023  -3.09190
    D9       -1.15570  -0.00001   0.00000  -0.00082  -0.00082  -1.15651
   D10       -1.22889   0.00000   0.00000  -0.00105  -0.00105  -1.22994
   D11        1.19471   0.00000   0.00000   0.00016   0.00016   1.19486
   D12        3.13067   0.00000   0.00000  -0.00043  -0.00043   3.13025
   D13        2.06098   0.00000   0.00000   0.00027   0.00027   2.06125
         Item               Value     Threshold  Converged?
 Maximum Force            0.000042     0.000450     YES
 RMS     Force            0.000012     0.000300     YES
 Maximum Displacement     0.000926     0.001800     YES
 RMS     Displacement     0.000425     0.001200     YES
 Predicted change in Energy=-5.325482D-08
 Optimization completed.
    -- Stationary point found.
                           ----------------------------
                           !   Optimized Parameters   !
                           ! (Angstroms and Degrees)  !
 --------------------------                            --------------------------
 ! Name  Definition              Value          Derivative Info.                !
 --------------------------------------------------------------------------------
 ! R1    R(1,2)                  1.0832         -DE/DX =    0.0                 !
 ! R2    R(1,3)                  1.0821         -DE/DX =    0.0                 !
 ! R3    R(1,4)                  1.2237         -DE/DX =    0.0                 !
 ! R4    R(1,5)                  1.4676         -DE/DX =    0.0                 !
 ! R5    R(4,9)                  1.5709         -DE/DX =    0.0                 !
 ! R6    R(5,6)                  1.0929         -DE/DX =    0.0                 !
 ! R7    R(5,7)                  1.0954         -DE/DX =    0.0                 !
 ! R8    R(5,8)                  2.1816         -DE/DX =    0.0                 !
 ! R9    R(9,10)                 0.8907         -DE/DX =    0.0                 !
 ! A1    A(2,1,3)              110.5507         -DE/DX =    0.0                 !
 ! A2    A(2,1,4)              107.7756         -DE/DX =    0.0                 !
 ! A3    A(2,1,5)              115.978          -DE/DX =    0.0                 !
 ! A4    A(3,1,4)              108.8681         -DE/DX =    0.0                 !
 ! A5    A(3,1,5)              116.2914         -DE/DX =    0.0                 !
 ! A6    A(4,1,5)               95.854          -DE/DX =    0.0                 !
 ! A7    A(1,4,9)              126.5153         -DE/DX =    0.0                 !
 ! A8    A(1,5,6)              116.8993         -DE/DX =    0.0                 !
 ! A9    A(1,5,7)              116.5881         -DE/DX =    0.0                 !
 ! A10   A(1,5,8)              108.0667         -DE/DX =    0.0                 !
 ! A11   A(6,5,7)              113.4608         -DE/DX =    0.0                 !
 ! A12   A(6,5,8)               98.781          -DE/DX =    0.0                 !
 ! A13   A(7,5,8)               99.4855         -DE/DX =    0.0                 !
 ! A14   A(4,9,10)             120.5281         -DE/DX =    0.0                 !
 ! D1    D(2,1,4,9)            118.8046         -DE/DX =    0.0                 !
 ! D2    D(3,1,4,9)           -121.2528         -DE/DX =    0.0                 !
 ! D3    D(5,1,4,9)             -0.8828         -DE/DX =    0.0                 !
 ! D4    D(2,1,5,6)            176.5517         -DE/DX =    0.0                 !
 ! D5    D(2,1,5,7)            -44.5863         -DE/DX =    0.0                 !
 ! D6    D(2,1,5,8)             66.3365         -DE/DX =    0.0                 !
 ! D7    D(3,1,5,6)             43.9986         -DE/DX =    0.0                 !
 ! D8    D(3,1,5,7)           -177.1394         -DE/DX =    0.0                 !
 ! D9    D(3,1,5,8)            -66.2165         -DE/DX =    0.0                 !
 ! D10   D(4,1,5,6)            -70.4104         -DE/DX =    0.0                 !
 ! D11   D(4,1,5,7)             68.4516         -DE/DX =    0.0                 !
 ! D12   D(4,1,5,8)            179.3745         -DE/DX =    0.0                 !
 ! D13   D(1,4,9,10)           118.0853         -DE/DX =    0.0                 !
 --------------------------------------------------------------------------------
 GradGradGradGradGradGradGradGradGradGradGradGradGradGradGradGradGradGrad

 1|1|UNPC-DESKTOP-KC5UJLK|Freq|RPM6|ZDO|C2H6Br1O1(1-)|23122|17-Mar-2022
 |0||#N Geom=AllCheck Guess=TCheck SCRF=Check GenChk RPM6/ZDO Freq||Ene
 rgy Calculation(GC)||-1,1|C,-2.9634249665,0.6990187175,-0.8016155872|H
 ,-2.6946940382,-0.1896501751,-1.359545525|H,-2.5631173761,1.5833320891
 ,-1.2798735832|H,-4.1846508006,0.7756751231,-0.7866430141|C,-2.8006921
 094,0.617478353,0.6547010999|H,-3.0119709919,1.5240200877,1.2273622111
 |H,-3.1607084487,-0.2973134271,1.137779665|Br,-0.6701078831,0.43853327
 89,1.0884475436|O,-5.1072058681,0.7524435839,0.4846670323|H,-5.6214926
 174,1.451958939,0.6832955777||Version=IA32W-G09RevD.01|State=1-A|HF=-0
 .1084448|RMSD=7.340e-010|RMSF=1.219e-005|ZeroPoint=0.064512|Thermal=0.
 0708639|Dipole=2.1322897,0.3306562,-0.0228281|DipoleDeriv=-1.7277603,0
 .0977079,-0.1079077,0.0913658,-0.6858137,0.0225914,-0.5443668,0.040183
 3,-1.0537219,0.23796,0.0253905,0.038861,0.0028712,0.1633175,0.0338976,
 0.024328,0.0037563,0.1673526,0.2224099,-0.0377826,0.0305554,-0.0152511
 ,0.1615491,-0.0315723,0.0225578,-0.0053466,0.1578149,1.3539529,-0.0618
 095,-0.0864118,-0.023788,0.3174283,0.0294034,-0.5654033,0.0449325,0.41
 94036,2.8623236,-0.2654919,0.7268302,-0.2793813,0.0417901,-0.0710799,1
 .0184678,-0.1023805,0.6790935,-0.1300488,-0.0318867,-0.0995731,-0.0562
 041,0.1538016,0.0185738,-0.0750355,0.0347364,0.0881808,-0.0920338,0.09
 93269,-0.1063011,0.1194502,0.1646386,-0.0102361,-0.0771514,-0.0223186,
 0.0977415,-1.8359116,0.1228803,-0.4274118,0.106908,-0.538343,0.0361634
 ,-0.3024327,0.0292877,-0.6427179,-2.2271816,-0.0014825,-0.0183316,0.15
 96498,-1.0119973,-0.0167345,0.5357249,-0.0084288,-1.1874065,0.3362922,
 0.0531472,0.0496892,-0.1056227,0.2336341,-0.0110084,-0.0366878,-0.0144
 221,0.2742579|Polar=71.8400159,-6.0657874,17.2353211,10.486049,-0.7344
 314,26.2983648|HyperPolar=446.1421076,-6.9925392,-10.8736186,5.8643376
 ,26.0578074,-7.4953,2.8668746,136.5214739,-12.7785846,108.8472925|PG=C
 01 [X(C2H6Br1O1)]|NImag=1||0.30148948,0.01234294,0.41948867,-0.0628468
 2,-0.00140621,0.52364768,-0.04160666,0.04234080,0.02906665,0.04150881,
 0.03616873,-0.16553816,-0.07950699,-0.04639573,0.19213510,0.02262341,-
 0.07784199,-0.08351692,-0.03007647,0.09967229,0.11155915,-0.05690504,-
 0.06218703,0.03498386,0.00512631,0.00273119,-0.00072443,0.05901999,-0.
 05577358,-0.16372019,0.06707888,-0.00716425,-0.02503246,0.00446919,0.0
 7056040,0.19160642,0.02916647,0.06602724,-0.07060482,-0.00200040,-0.00
 699087,0.00553749,-0.03858539,-0.08656239,0.09474934,-0.09869591,0.003
 40537,0.02209363,-0.01053618,0.00776473,0.00381281,-0.01289424,-0.0062
 5777,0.00323343,0.12642904,0.00534230,-0.03141741,-0.00049306,0.014422
 91,-0.00214054,-0.00171340,-0.01389425,0.00041965,0.00091284,-0.007414
 98,0.03755050,-0.05384000,0.00354902,-0.03648726,0.00953561,-0.0047033
 3,0.00122262,0.00856930,0.00313447,0.00165844,0.05920172,-0.00702954,0
 .04240910,-0.04618195,-0.00065376,-0.00930191,0.00515697,-0.00025869,0
 .00416456,0.00525017,-0.00150232,0.00792840,-0.02038577,0.00155507,-0.
 03227437,0.09550131,-0.00121998,-0.06699854,0.01137970,-0.00237414,0.0
 0047977,-0.02484903,0.00146112,-0.00328290,0.02655349,0.00308210,0.005
 29987,0.00323827,0.02728186,0.41173780,0.01716903,0.00958984,-0.272511
 45,-0.00408627,-0.01084378,-0.03200133,-0.00188503,0.01363976,-0.02846
 342,-0.05298684,0.00327509,0.00338361,-0.02810219,-0.00184509,0.507377
 67,0.00330683,-0.00038219,-0.00270036,0.00163884,0.00020400,-0.0000554
 4,-0.00034643,0.00001866,0.00024343,0.00203126,-0.00027532,-0.00124372
 ,-0.02378693,0.02716464,0.02362177,0.04409200,0.00023690,-0.00023999,-
 0.00814073,0.00007611,0.00005089,0.00019956,0.00000758,0.00069158,0.00
 022076,-0.00132106,0.00033464,-0.00026857,0.03095658,-0.16528157,-0.08
 084399,-0.03425614,0.18965451,0.00328430,-0.02343658,-0.02901355,-0.00
 077903,0.00035777,-0.00318330,0.00012753,-0.00033377,-0.00031558,-0.00
 096089,-0.00050511,-0.00108490,0.02148822,-0.07921186,-0.08289325,-0.0
 1911945,0.09832957,0.11013278,0.00279487,-0.00037392,-0.00130190,-0.00
 028205,0.00014862,0.00025672,0.00166871,-0.00038728,-0.00010493,0.0027
 1933,0.00032369,-0.00146806,-0.03723523,-0.05071669,0.03141570,0.00630
 260,0.00052074,-0.00071353,0.05775423,-0.00170443,-0.00332408,0.010999
 04,0.00017877,0.00068867,-0.00013731,-0.00026674,0.00014599,0.00009101
 ,0.00132203,0.00010987,0.00056274,-0.05495337,-0.16570889,0.06688111,-
 0.00492650,-0.02262176,0.00503151,0.05829000,0.19244280,0.00690718,0.0
 2490455,-0.02588210,0.00020714,0.00039516,-0.00035133,-0.00077195,0.00
 009058,-0.00316788,-0.00085913,0.00082124,-0.00105192,0.02907977,0.066
 20661,-0.06780645,-0.00185621,-0.00789840,0.00603846,-0.02903805,-0.08
 502778,0.09220941,-0.02664178,0.00332596,-0.02733791,-0.00008415,0.000
 72928,0.00093338,-0.00015333,-0.00074586,0.00088851,0.00737999,0.00012
 998,-0.00396496,-0.00507191,-0.00103772,0.01440004,-0.02498581,0.00432
 811,-0.00204136,-0.02652689,0.00008708,-0.00252930,0.09184860,0.003260
 33,0.00291685,0.00262549,-0.00024473,-0.00036770,-0.00019515,0.0002182
 6,-0.00027803,0.00003357,-0.00066375,-0.00020907,0.00040507,-0.0006211
 2,-0.01344119,-0.00114639,0.01234592,-0.00137770,0.00042396,-0.0084778
 6,0.00052647,-0.00030267,-0.00717869,0.01107624,-0.02401912,0.00245946
 ,-0.01161707,0.00006851,0.00014689,0.00002078,0.00005535,-0.00017916,0
 .00002477,0.00376071,-0.00000662,-0.00386972,0.00523217,-0.00056658,-0
 .00819434,0.00082352,-0.00077954,0.00145216,-0.00007470,0.00058329,0.0
 0133186,0.01743520,-0.00167367,0.01789111,-0.03705567,0.00396451,0.013
 48290,-0.00072462,-0.00102689,-0.00085609,-0.00016150,0.00097296,-0.00
 086682,0.00799553,-0.00345593,0.01449083,0.02774656,-0.00538366,0.0019
 5126,-0.00727181,-0.00067598,-0.00115781,-0.00700732,0.00157997,-0.001
 09195,-0.01720856,0.00174414,-0.00362633,0.10138703,0.00482827,0.00863
 361,-0.00301496,-0.00079780,-0.00013424,0.00048619,0.00146051,-0.00081
 946,-0.00024331,-0.00672886,-0.00900282,0.00444806,-0.00843644,-0.0019
 8170,0.00135682,0.00063995,-0.00163021,-0.00067549,0.00105044,-0.00210
 610,0.00085299,0.00205745,0.00107471,0.00039262,-0.08235063,0.12786870
 ,0.05634812,-0.00460820,0.00734074,-0.00188950,0.00134045,0.00059556,-
 0.00206307,-0.00111128,0.00049902,-0.03401671,0.01010525,-0.01137394,-
 0.00401723,-0.00141433,-0.01831749,0.00082872,-0.00090490,-0.00140732,
 0.00146351,0.00094876,-0.00139026,0.00355902,-0.00019539,0.00329180,-0
 .04536772,0.02834542,0.04265253,-0.00050454,-0.00178267,0.00386190,-0.
 00019721,-0.00006525,-0.00007848,-0.00060458,0.00027908,0.00009730,-0.
 00404277,0.00326645,0.00099346,-0.00099323,0.00174247,-0.00149760,-0.0
 0098057,0.00012720,-0.00012795,-0.00018826,0.00039317,-0.00004744,0.00
 144374,-0.00038249,0.00034473,-0.06769951,0.08827698,0.02515498,0.0737
 6694,-0.00348138,0.00019908,0.00047879,-0.00004193,-0.00014124,-0.0000
 9037,-0.00009107,0.00026950,-0.00004233,0.00681213,-0.00094468,-0.0033
 3612,0.00663225,-0.00082265,-0.00006326,-0.00053299,0.00041970,0.00002
 002,-0.00037782,-0.00015293,-0.00004232,-0.00169560,0.00007931,-0.0003
 7669,0.08463175,-0.12190264,-0.03250595,-0.09185517,0.12299670,0.00520
 733,0.00076292,-0.00135552,-0.00004621,0.00013242,0.00011735,0.0002938
 6,-0.00022629,0.00008268,-0.00327853,-0.00536670,0.00519400,0.00580242
 ,0.00050881,-0.00057347,-0.00054229,0.00008635,0.00027449,-0.00043480,
 0.00006755,0.00007017,-0.00134259,0.00002518,-0.00033134,0.02304189,-0
 .03194840,-0.02189057,-0.02870098,0.03595827,0.01841226||0.00000944,0.
 00000300,0.00000753,-0.00000492,-0.00000109,0.00000292,0.00000679,-0.0
 0000322,0.00000305,-0.00000130,0.00000742,-0.00000334,0.00004176,-0.00
 000197,-0.00000820,-0.00000940,-0.00000208,-0.00000441,-0.00000104,0.0
 0000135,-0.00000591,-0.00001887,0.00000315,-0.00000419,-0.00002937,-0.
 00000939,0.00002496,0.00000691,0.00000283,-0.00001241|||@


 I WOULD TAKE COUNSEL OF MYSELF.
 I WOULD STOP AND LOOK WITHIN
 AND LOOKING WITHIN, LOOK BACK, ALSO
 THAT I MAY LOOK AHEAD WITH CLEARER UNDERSTANDING
 OF THE WAY I HAVE BEEN MOVING, AND IN WHAT DIRECTION.
 I NEED TO KNOW IF I AM GOING FORWARD OR RETREATING,
 WHETHER I HAVE BEEN WASTING, OR ENJOYING
 THE PRECIOUS MOMENTS OF LIFE.  THERE HAVE BEEN FRICTIONS,
 ANNOYANCES AND SOMETIMES WRATH,
 BUT WERE THEY BECAUSE I WAS RIGHT AND OTHERS WRONG.....
 HAVE I HAD MY THOUGHTS TOO SHARPLY FOCUSED
 ON THAT WHICH PLEASED ME, SERVED MY SELF-ESTEEM,
 UNDERGIRDED MY SECURITY,
 OF WHICH I DID NOT INQUIRE WHETHER IT SERVED OR HAMPERED OTHERS.....
 HAVE I BEEN TRYING TO STOP THE CLOCK
 TO HOLD THE WORLD
 IN PERPETUATION OF WHAT WAS AN IS ALREADY SLIPPING AWAY.....
 HAVE I BEEN CRITICAL OF OTHERS FOR WHAT REALLY NEEDED CHANGING IN ME...
 LET ME INDEED TAKE COUNSEL OF MYSELF
 AND SET MY DIRECTIONS STRAIGHT.

                          R.T. WESTON AS ADAPTED BY D. OSBORN 1967
 Job cpu time:       0 days  0 hours  0 minutes  1.0 seconds.
 File lengths (MBytes):  RWF=      6 Int=      0 D2E=      0 Chk=      1 Scr=      1
 Normal termination of Gaussian 09 at Thu Mar 17 18:32:38 2022.
