 Entering Link 1 = C:\G09W\l1.exe PID=     11640.
  
 Copyright (c) 1988,1990,1992,1993,1995,1998,2003,2009,2013,
            Gaussian, Inc.  All Rights Reserved.
  
 This is part of the Gaussian(R) 09 program.  It is based on
 the Gaussian(R) 03 system (copyright 2003, Gaussian, Inc.),
 the Gaussian(R) 98 system (copyright 1998, Gaussian, Inc.),
 the Gaussian(R) 94 system (copyright 1995, Gaussian, Inc.),
 the Gaussian 92(TM) system (copyright 1992, Gaussian, Inc.),
 the Gaussian 90(TM) system (copyright 1990, Gaussian, Inc.),
 the Gaussian 88(TM) system (copyright 1988, Gaussian, Inc.),
 the Gaussian 86(TM) system (copyright 1986, Carnegie Mellon
 University), and the Gaussian 82(TM) system (copyright 1983,
 Carnegie Mellon University). Gaussian is a federally registered
 trademark of Gaussian, Inc.
  
 This software contains proprietary and confidential information,
 including trade secrets, belonging to Gaussian, Inc.
  
 This software is provided under written license and may be
 used, copied, transmitted, or stored only in accord with that
 written license.
  
 The following legend is applicable only to US Government
 contracts under FAR:
  
                    RESTRICTED RIGHTS LEGEND
  
 Use, reproduction and disclosure by the US Government is
 subject to restrictions as set forth in subparagraphs (a)
 and (c) of the Commercial Computer Software - Restricted
 Rights clause in FAR 52.227-19.
  
 Gaussian, Inc.
 340 Quinnipiac St., Bldg. 40, Wallingford CT 06492
  
  
 ---------------------------------------------------------------
 Warning -- This program may not be used in any manner that
 competes with the business of Gaussian, Inc. or will provide
 assistance to any competitor of Gaussian, Inc.  The licensee
 of this program is prohibited from giving any competitor of
 Gaussian, Inc. access to this program.  By using this program,
 the user acknowledges that Gaussian, Inc. is engaged in the
 business of creating and licensing software in the field of
 computational chemistry and represents and warrants to the
 licensee that it is not a competitor of Gaussian, Inc. and that
 it will not use this program in any manner prohibited above.
 ---------------------------------------------------------------
  

 Cite this work as:
 Gaussian 09, Revision D.01,
 M. J. Frisch, G. W. Trucks, H. B. Schlegel, G. E. Scuseria, 
 M. A. Robb, J. R. Cheeseman, G. Scalmani, V. Barone, B. Mennucci, 
 G. A. Petersson, H. Nakatsuji, M. Caricato, X. Li, H. P. Hratchian, 
 A. F. Izmaylov, J. Bloino, G. Zheng, J. L. Sonnenberg, M. Hada, 
 M. Ehara, K. Toyota, R. Fukuda, J. Hasegawa, M. Ishida, T. Nakajima, 
 Y. Honda, O. Kitao, H. Nakai, T. Vreven, J. A. Montgomery, Jr., 
 J. E. Peralta, F. Ogliaro, M. Bearpark, J. J. Heyd, E. Brothers, 
 K. N. Kudin, V. N. Staroverov, T. Keith, R. Kobayashi, J. Normand, 
 K. Raghavachari, A. Rendell, J. C. Burant, S. S. Iyengar, J. Tomasi, 
 M. Cossi, N. Rega, J. M. Millam, M. Klene, J. E. Knox, J. B. Cross, 
 V. Bakken, C. Adamo, J. Jaramillo, R. Gomperts, R. E. Stratmann, 
 O. Yazyev, A. J. Austin, R. Cammi, C. Pomelli, J. W. Ochterski, 
 R. L. Martin, K. Morokuma, V. G. Zakrzewski, G. A. Voth, 
 P. Salvador, J. J. Dannenberg, S. Dapprich, A. D. Daniels, 
 O. Farkas, J. B. Foresman, J. V. Ortiz, J. Cioslowski, 
 and D. J. Fox, Gaussian, Inc., Wallingford CT, 2013.
 
 ******************************************
 Gaussian 09:  IA32W-G09RevD.01 24-Apr-2013
                11-Mar-2022 
 ******************************************
 %chk=D:\mindmap\gaussian\calculate\opt_freq\H2O\H2O.chk
 %nprocshared=4
 Will use up to    4 processors via shared memory.
 %mem=1GB
 ----------------------------------------------------
 # opt freq apfd/6-311+g(2d,p) pop=full int=ultrafine
 ----------------------------------------------------
 1/14=-1,18=20,19=15,26=4,38=1/1,3;
 2/9=110,12=2,17=6,18=5,40=1/2;
 3/5=4,6=6,7=112,11=2,16=1,25=1,30=1,71=1,74=-44,75=-5/1,2,3;
 4//1;
 5/5=2,38=5/2;
 6/7=3,28=1/1;
 7//1,2,3,16;
 1/14=-1,18=20,19=15,26=4/3(2);
 2/9=110/2;
 99//99;
 2/9=110/2;
 3/5=4,6=6,7=112,11=2,16=1,25=1,30=1,71=1,74=-44,75=-5/1,2,3;
 4/5=5,16=3,69=1/1;
 5/5=2,38=5/2;
 7//1,2,3,16;
 1/14=-1,18=20,19=15,26=4/3(-5);
 2/9=110/2;
 6/7=3,19=2,28=1/1;
 99/9=1/99;
 ------------
 opt freq(GC)
 ------------
 Symbolic Z-matrix:
 Charge =  0 Multiplicity = 1
 O                    -1.34438   0.11971   0. 
 H                    -0.38438   0.11971   0. 
 H                    -1.66484   1.02464   0. 
 

 GradGradGradGradGradGradGradGradGradGradGradGradGradGradGradGradGradGrad
 Berny optimization.
 Initialization pass.
                           ----------------------------
                           !    Initial Parameters    !
                           ! (Angstroms and Degrees)  !
 --------------------------                            --------------------------
 ! Name  Definition              Value          Derivative Info.                !
 --------------------------------------------------------------------------------
 ! R1    R(1,2)                  0.96           estimate D2E/DX2                !
 ! R2    R(1,3)                  0.96           estimate D2E/DX2                !
 ! A1    A(2,1,3)              109.5            estimate D2E/DX2                !
 --------------------------------------------------------------------------------
 Trust Radius=3.00D-01 FncErr=1.00D-07 GrdErr=1.00D-06
 Number of steps in this run=     20 maximum allowed number of steps=    100.
 GradGradGradGradGradGradGradGradGradGradGradGradGradGradGradGradGradGrad

                          Input orientation:                          
 ---------------------------------------------------------------------
 Center     Atomic      Atomic             Coordinates (Angstroms)
 Number     Number       Type             X           Y           Z
 ---------------------------------------------------------------------
      1          8           0       -1.344383    0.119705    0.000000
      2          1           0       -0.384383    0.119705    0.000000
      3          1           0       -1.664838    1.024641    0.000000
 ---------------------------------------------------------------------
                    Distance matrix (angstroms):
                    1          2          3
     1  O    0.000000
     2  H    0.960000   0.000000
     3  H    0.960000   1.567952   0.000000
 Stoichiometry    H2O
 Framework group  C2V[C2(O),SGV(H2)]
 Deg. of freedom     2
 Full point group                 C2V     NOp   4
 Largest Abelian subgroup         C2V     NOp   4
 Largest concise Abelian subgroup C2      NOp   2
                         Standard orientation:                         
 ---------------------------------------------------------------------
 Center     Atomic      Atomic             Coordinates (Angstroms)
 Number     Number       Type             X           Y           Z
 ---------------------------------------------------------------------
      1          8           0        0.000000    0.000000    0.110812
      2          1           0        0.000000    0.783976   -0.443248
      3          1           0        0.000000   -0.783976   -0.443248
 ---------------------------------------------------------------------
 Rotational constants (GHZ):    919.6759643    407.9403261    282.5913749
 Standard basis: 6-311+G(2d,p) (5D, 7F)
 There are    20 symmetry adapted cartesian basis functions of A1  symmetry.
 There are     3 symmetry adapted cartesian basis functions of A2  symmetry.
 There are     7 symmetry adapted cartesian basis functions of B1  symmetry.
 There are    11 symmetry adapted cartesian basis functions of B2  symmetry.
 There are    18 symmetry adapted basis functions of A1  symmetry.
 There are     3 symmetry adapted basis functions of A2  symmetry.
 There are     7 symmetry adapted basis functions of B1  symmetry.
 There are    11 symmetry adapted basis functions of B2  symmetry.
    39 basis functions,    58 primitive gaussians,    41 cartesian basis functions
     5 alpha electrons        5 beta electrons
       nuclear repulsion energy         9.1571159843 Hartrees.
 NAtoms=    3 NActive=    3 NUniq=    2 SFac= 2.25D+00 NAtFMM=   60 NAOKFM=F Big=F
 Integral buffers will be    262144 words long.
 Raffenetti 2 integral format.
 Two-electron integral symmetry is turned on.
 R6APFD:  NTU= -4 IXU= 1 FactS= 1.050
 Nuclear repulsion after empirical dispersion term =        9.1571159843 Hartrees.
 One-electron integrals computed using PRISM.
 NBasis=    39 RedAO= T EigKep=  4.58D-03  NBF=    18     3     7    11
 NBsUse=    39 1.00D-06 EigRej= -1.00D+00 NBFU=    18     3     7    11
 ExpMin= 8.45D-02 ExpMax= 8.59D+03 ExpMxC= 1.30D+03 IAcc=3 IRadAn=         5 AccDes= 0.00D+00
 Harris functional with IExCor= 3731 and IRadAn=       5 diagonalized for initial guess.
 HarFok:  IExCor= 3731 AccDes= 0.00D+00 IRadAn=         5 IDoV= 1 UseB2=F ITyADJ=14
 ICtDFT=  3500011 ScaDFX=  1.000000  1.000000  1.000000  1.000000
 FoFCou: FMM=F IPFlag=           0 FMFlag=      100000 FMFlg1=           0
         NFxFlg=           0 DoJE=T BraDBF=F KetDBF=T FulRan=T
         wScrn=  0.000000 ICntrl=     500 IOpCl=  0 I1Cent=   200000004 NGrid=           0
         NMat0=    1 NMatS0=      1 NMatT0=    0 NMatD0=    1 NMtDS0=    0 NMtDT0=    0
 Petite list used in FoFCou.
 Initial guess orbital symmetries:
       Occupied  (A1) (A1) (B2) (A1) (B1)
       Virtual   (A1) (B2) (A1) (B1) (B2) (A1) (B2) (A1) (B2) (A1)
                 (B1) (A2) (A1) (A1) (B1) (B2) (A1) (B2) (B1) (A2)
                 (A1) (A1) (B2) (A1) (B2) (B1) (A1) (B2) (B1) (A2)
                 (A1) (A1) (B2) (A1)
 The electronic state of the initial guess is 1-A1.
 Keep R1 ints in memory in symmetry-blocked form, NReq=1189054.
 Requested convergence on RMS density matrix=1.00D-08 within 128 cycles.
 Requested convergence on MAX density matrix=1.00D-06.
 Requested convergence on             energy=1.00D-06.
 No special actions if energy rises.
 Integral accuracy reduced to 1.0D-05 until final iterations.
 Initial convergence to 1.0D-05 achieved.  Increase integral accuracy.
 SCF Done:  E(RAPFD) =  -76.3957670850     A.U. after    9 cycles
            NFock=  9  Conv=0.71D-08     -V/T= 2.0030

 **********************************************************************

            Population analysis using the SCF density.

 **********************************************************************

 Orbital symmetries:
       Occupied  (A1) (A1) (B2) (A1) (B1)
       Virtual   (A1) (B2) (A1) (B1) (B2) (A1) (B2) (A1) (B2) (A1)
                 (B1) (A2) (A1) (A1) (B1) (B2) (A1) (B2) (B1) (A2)
                 (A1) (A1) (B2) (A1) (B2) (B1) (A1) (B2) (B1) (A2)
                 (A1) (A1) (B2) (A1)
 The electronic state is 1-A1.
 Alpha  occ. eigenvalues --  -19.16982  -1.03363  -0.55658  -0.39599  -0.32682
 Alpha virt. eigenvalues --    0.03739   0.11266   0.16512   0.16664   0.18964
 Alpha virt. eigenvalues --    0.21431   0.49313   0.49408   0.93265   0.95226
 Alpha virt. eigenvalues --    1.00746   1.13724   1.17108   1.28562   1.29165
 Alpha virt. eigenvalues --    1.62630   1.69124   1.73450   2.02272   2.07073
 Alpha virt. eigenvalues --    2.27767   2.49080   2.50122   2.87508   2.97425
 Alpha virt. eigenvalues --    4.95940   5.35509   5.91137   6.78254   6.82134
 Alpha virt. eigenvalues --    6.85886   6.95105   7.11520  49.94170
     Molecular Orbital Coefficients:
                           1         2         3         4         5
                        (A1)--O   (A1)--O   (B2)--O   (A1)--O   (B1)--O
     Eigenvalues --   -19.16982  -1.03363  -0.55658  -0.39599  -0.32682
   1 1   O  1S          0.55157  -0.11624   0.00000  -0.04137   0.00000
   2        2S          0.46974  -0.18698   0.00000  -0.06802   0.00000
   3        2PX         0.00000   0.00000   0.00000   0.00000   0.29452
   4        2PY         0.00000   0.00000   0.23878   0.00000   0.00000
   5        2PZ        -0.00126  -0.04944   0.00000   0.26201   0.00000
   6        3S          0.01204   0.54127   0.00000   0.20758   0.00000
   7        3PX         0.00000   0.00000   0.00000   0.00000   0.43475
   8        3PY         0.00000   0.00000   0.34615   0.00000   0.00000
   9        3PZ        -0.00033  -0.07527   0.00000   0.37965   0.00000
  10        4S         -0.00355   0.36466   0.00000   0.30777   0.00000
  11        4PX         0.00000   0.00000   0.00000   0.00000   0.40395
  12        4PY         0.00000   0.00000   0.21112   0.00000   0.00000
  13        4PZ        -0.00056  -0.02962   0.00000   0.30501   0.00000
  14        5S          0.00341  -0.00262   0.00000   0.01403   0.00000
  15        5PX         0.00000   0.00000   0.00000   0.00000   0.10696
  16        5PY         0.00000   0.00000   0.01353   0.00000   0.00000
  17        5PZ        -0.00040   0.00011   0.00000   0.07831   0.00000
  18        6D 0        0.00001   0.00080   0.00000  -0.00424   0.00000
  19        6D+1        0.00000   0.00000   0.00000   0.00000  -0.00422
  20        6D-1        0.00000   0.00000  -0.01109   0.00000   0.00000
  21        6D+2       -0.00015  -0.00453   0.00000   0.00252   0.00000
  22        6D-2        0.00000   0.00000   0.00000   0.00000   0.00000
  23        7D 0       -0.00002   0.00317   0.00000  -0.02461   0.00000
  24        7D+1        0.00000   0.00000   0.00000   0.00000  -0.02426
  25        7D-1        0.00000   0.00000  -0.01843   0.00000   0.00000
  26        7D+2       -0.00041  -0.00577   0.00000  -0.00449   0.00000
  27        7D-2        0.00000   0.00000   0.00000   0.00000   0.00000
  28 2   H  1S         -0.00016   0.09756   0.15299  -0.08560   0.00000
  29        2S         -0.00062   0.07977   0.19753  -0.13615   0.00000
  30        3S         -0.00110   0.00286   0.04877  -0.02191   0.00000
  31        4PX         0.00000   0.00000   0.00000   0.00000   0.03044
  32        4PY         0.00088  -0.02366  -0.01654   0.02357   0.00000
  33        4PZ        -0.00065   0.01337   0.02359   0.00972   0.00000
  34 3   H  1S         -0.00016   0.09756  -0.15299  -0.08560   0.00000
  35        2S         -0.00062   0.07977  -0.19753  -0.13615   0.00000
  36        3S         -0.00110   0.00286  -0.04877  -0.02191   0.00000
  37        4PX         0.00000   0.00000   0.00000   0.00000   0.03044
  38        4PY        -0.00088   0.02366  -0.01654  -0.02357   0.00000
  39        4PZ        -0.00065   0.01337  -0.02359   0.00972   0.00000
                           6         7         8         9        10
                        (A1)--V   (B2)--V   (A1)--V   (B1)--V   (B2)--V
     Eigenvalues --     0.03739   0.11266   0.16512   0.16664   0.18964
   1 1   O  1S          0.04257   0.00000  -0.01695   0.00000   0.00000
   2        2S          0.06912   0.00000  -0.02804   0.00000   0.00000
   3        2PX         0.00000   0.00000   0.00000  -0.13631   0.00000
   4        2PY         0.00000  -0.16336   0.00000   0.00000  -0.01377
   5        2PZ         0.09778   0.00000   0.10316   0.00000   0.00000
   6        3S         -0.19214   0.00000   0.09929   0.00000   0.00000
   7        3PX         0.00000   0.00000   0.00000  -0.14518   0.00000
   8        3PY         0.00000  -0.20539   0.00000   0.00000  -0.01547
   9        3PZ         0.14610   0.00000   0.11103   0.00000   0.00000
  10        4S         -0.73914   0.00000   0.08212   0.00000   0.00000
  11        4PX         0.00000   0.00000   0.00000  -0.52199   0.00000
  12        4PY         0.00000  -0.50610   0.00000   0.00000   0.25734
  13        4PZ         0.20088   0.00000   0.50290   0.00000   0.00000
  14        5S         -0.61349   0.00000   2.04344   0.00000   0.00000
  15        5PX         0.00000   0.00000   0.00000   1.24187   0.00000
  16        5PY         0.00000  -0.18003   0.00000   0.00000  -3.03320
  17        5PZ         0.21276   0.00000  -1.93301   0.00000   0.00000
  18        6D 0       -0.00196   0.00000  -0.00090   0.00000   0.00000
  19        6D+1        0.00000   0.00000   0.00000   0.00162   0.00000
  20        6D-1        0.00000  -0.00151   0.00000   0.00000  -0.00393
  21        6D+2       -0.00082   0.00000   0.00103   0.00000   0.00000
  22        6D-2        0.00000   0.00000   0.00000   0.00000   0.00000
  23        7D 0       -0.00697   0.00000  -0.01148   0.00000   0.00000
  24        7D+1        0.00000   0.00000   0.00000   0.01049   0.00000
  25        7D-1        0.00000  -0.00090   0.00000   0.00000  -0.08635
  26        7D+2       -0.01098   0.00000   0.02491   0.00000   0.00000
  27        7D-2        0.00000   0.00000   0.00000   0.00000   0.00000
  28 2   H  1S          0.05370   0.04360  -0.02458   0.00000   0.06070
  29        2S          0.02082   0.03859   0.08875   0.00000  -0.11314
  30        3S          1.10343   1.53510  -1.43290   0.00000   3.03721
  31        4PX         0.00000   0.00000   0.00000   0.01483   0.00000
  32        4PY         0.02402   0.01721  -0.02877   0.00000   0.02860
  33        4PZ        -0.00853  -0.01877  -0.00684   0.00000  -0.05013
  34 3   H  1S          0.05370  -0.04360  -0.02458   0.00000  -0.06070
  35        2S          0.02082  -0.03859   0.08875   0.00000   0.11314
  36        3S          1.10343  -1.53510  -1.43290   0.00000  -3.03721
  37        4PX         0.00000   0.00000   0.00000   0.01483   0.00000
  38        4PY        -0.02402   0.01721   0.02877   0.00000   0.02860
  39        4PZ        -0.00853   0.01877  -0.00684   0.00000   0.05013
                          11        12        13        14        15
                        (A1)--V   (B2)--V   (A1)--V   (B2)--V   (A1)--V
     Eigenvalues --     0.21431   0.49313   0.49408   0.93265   0.95226
   1 1   O  1S          0.00708   0.00000   0.04649   0.00000  -0.00843
   2        2S          0.00991   0.00000   0.08030   0.00000  -0.01960
   3        2PX         0.00000   0.00000   0.00000   0.00000   0.00000
   4        2PY         0.00000   0.16749   0.00000  -0.23151   0.00000
   5        2PZ        -0.06116   0.00000   0.11468   0.00000  -0.24032
   6        3S          0.02555   0.00000  -0.26829   0.00000   0.30548
   7        3PX         0.00000   0.00000   0.00000   0.00000   0.00000
   8        3PY         0.00000   0.33311   0.00000  -0.57799   0.00000
   9        3PZ        -0.04564   0.00000   0.23453   0.00000  -0.64763
  10        4S         -0.70986   0.00000  -1.30349   0.00000  -1.81223
  11        4PX         0.00000   0.00000   0.00000   0.00000   0.00000
  12        4PY         0.00000   1.09428   0.00000   2.63044   0.00000
  13        4PZ        -0.15609   0.00000   0.76074   0.00000   2.05053
  14        5S          8.07315   0.00000   5.24410   0.00000   2.19479
  15        5PX         0.00000   0.00000   0.00000   0.00000   0.00000
  16        5PY         0.00000  -2.09911   0.00000  -1.54106   0.00000
  17        5PZ        -2.16443   0.00000  -1.59665   0.00000  -1.34769
  18        6D 0        0.00108   0.00000  -0.00206   0.00000   0.00350
  19        6D+1        0.00000   0.00000   0.00000   0.00000   0.00000
  20        6D-1        0.00000   0.02346   0.00000   0.03406   0.00000
  21        6D+2        0.00590   0.00000  -0.01715   0.00000  -0.01825
  22        6D-2        0.00000   0.00000   0.00000   0.00000   0.00000
  23        7D 0        0.00914   0.00000  -0.02574   0.00000  -0.12251
  24        7D+1        0.00000   0.00000   0.00000   0.00000   0.00000
  25        7D-1        0.00000  -0.06887   0.00000  -0.22128   0.00000
  26        7D+2        0.05413   0.00000   0.03260   0.00000   0.06901
  27        7D-2        0.00000   0.00000   0.00000   0.00000   0.00000
  28 2   H  1S         -0.05561  -0.11809   0.10909  -0.06537   0.04070
  29        2S          0.04724  -1.69903   1.77614  -1.23705   1.09033
  30        3S         -4.26309   3.38770  -3.67379   1.14072  -1.29693
  31        4PX         0.00000   0.00000   0.00000   0.00000   0.00000
  32        4PY        -0.04810   0.05113  -0.02014   0.28606  -0.13659
  33        4PZ         0.01599  -0.00663   0.03360  -0.14534   0.25076
  34 3   H  1S         -0.05561   0.11809   0.10909   0.06537   0.04070
  35        2S          0.04724   1.69903   1.77614   1.23705   1.09033
  36        3S         -4.26309  -3.38770  -3.67379  -1.14072  -1.29693
  37        4PX         0.00000   0.00000   0.00000   0.00000   0.00000
  38        4PY         0.04810   0.05113   0.02014   0.28606   0.13659
  39        4PZ         0.01599   0.00663   0.03360   0.14534   0.25076
                          16        17        18        19        20
                        (B1)--V   (A2)--V   (A1)--V   (A1)--V   (B1)--V
     Eigenvalues --     1.00746   1.13724   1.17108   1.28562   1.29165
   1 1   O  1S          0.00000   0.00000   0.03640   0.09758   0.00000
   2        2S          0.00000   0.00000   0.07091   0.19614   0.00000
   3        2PX        -0.26838   0.00000   0.00000   0.00000   0.00206
   4        2PY         0.00000   0.00000   0.00000   0.00000   0.00000
   5        2PZ         0.00000   0.00000  -0.06589  -0.05046   0.00000
   6        3S          0.00000   0.00000  -0.46912  -1.60382   0.00000
   7        3PX        -0.84630   0.00000   0.00000   0.00000  -0.08252
   8        3PY         0.00000   0.00000   0.00000   0.00000   0.00000
   9        3PZ         0.00000   0.00000  -0.29309  -0.25199   0.00000
  10        4S          0.00000   0.00000   0.28967   3.78328   0.00000
  11        4PX         1.58326   0.00000   0.00000   0.00000   0.56449
  12        4PY         0.00000   0.00000   0.00000   0.00000   0.00000
  13        4PZ         0.00000   0.00000   1.16603  -0.68366   0.00000
  14        5S          0.00000   0.00000  -0.58066  -3.51928   0.00000
  15        5PX        -0.78183   0.00000   0.00000   0.00000  -0.14175
  16        5PY         0.00000   0.00000   0.00000   0.00000   0.00000
  17        5PZ         0.00000   0.00000  -0.23756   0.74232   0.00000
  18        6D 0        0.00000   0.00000   0.01868  -0.00402   0.00000
  19        6D+1        0.00678   0.00000   0.00000   0.00000   0.01191
  20        6D-1        0.00000   0.00000   0.00000   0.00000   0.00000
  21        6D+2        0.00000   0.00000   0.00862   0.01578   0.00000
  22        6D-2        0.00000   0.01688   0.00000   0.00000   0.00000
  23        7D 0        0.00000   0.00000   0.42141  -0.27472   0.00000
  24        7D+1       -0.07065   0.00000   0.00000   0.00000   0.63578
  25        7D-1        0.00000   0.00000   0.00000   0.00000   0.00000
  26        7D+2        0.00000   0.00000   0.08080   0.04753   0.00000
  27        7D-2        0.00000   0.46368   0.00000   0.00000   0.00000
  28 2   H  1S          0.00000   0.00000  -0.04221  -0.05912   0.00000
  29        2S          0.00000   0.00000   0.49058  -1.25247   0.00000
  30        3S          0.00000   0.00000   0.02853   1.64927   0.00000
  31        4PX         0.04335   0.46826   0.00000   0.00000  -0.42219
  32        4PY         0.00000   0.00000  -0.24276   0.32326   0.00000
  33        4PZ         0.00000   0.00000  -0.34198  -0.05378   0.00000
  34 3   H  1S          0.00000   0.00000  -0.04221  -0.05912   0.00000
  35        2S          0.00000   0.00000   0.49058  -1.25247   0.00000
  36        3S          0.00000   0.00000   0.02853   1.64927   0.00000
  37        4PX         0.04335  -0.46826   0.00000   0.00000  -0.42219
  38        4PY         0.00000   0.00000   0.24276  -0.32326   0.00000
  39        4PZ         0.00000   0.00000  -0.34198  -0.05378   0.00000
                          21        22        23        24        25
                        (B2)--V   (A1)--V   (B2)--V   (B1)--V   (A2)--V
     Eigenvalues --     1.62630   1.69124   1.73450   2.02272   2.07073
   1 1   O  1S          0.00000   0.04736   0.00000   0.00000   0.00000
   2        2S          0.00000   0.09555   0.00000   0.00000   0.00000
   3        2PX         0.00000   0.00000   0.00000  -0.01814   0.00000
   4        2PY        -0.05499   0.00000   0.11707   0.00000   0.00000
   5        2PZ         0.00000   0.06366   0.00000   0.00000   0.00000
   6        3S          0.00000  -0.86855   0.00000   0.00000   0.00000
   7        3PX         0.00000   0.00000   0.00000   0.01777   0.00000
   8        3PY        -0.09677   0.00000   0.02205   0.00000   0.00000
   9        3PZ         0.00000   0.03442   0.00000   0.00000   0.00000
  10        4S          0.00000   3.01003   0.00000   0.00000   0.00000
  11        4PX         0.00000   0.00000   0.00000  -0.71951   0.00000
  12        4PY         1.76769   0.00000  -1.14068   0.00000   0.00000
  13        4PZ         0.00000  -1.33728   0.00000   0.00000   0.00000
  14        5S          0.00000  -2.63805   0.00000   0.00000   0.00000
  15        5PX         0.00000   0.00000   0.00000   0.11563   0.00000
  16        5PY        -0.80005   0.00000   0.89810   0.00000   0.00000
  17        5PZ         0.00000   0.76019   0.00000   0.00000   0.00000
  18        6D 0        0.00000  -0.00180   0.00000   0.00000   0.00000
  19        6D+1        0.00000   0.00000   0.00000  -0.00083   0.00000
  20        6D-1       -0.00642   0.00000   0.00583   0.00000   0.00000
  21        6D+2        0.00000  -0.00457   0.00000   0.00000   0.00000
  22        6D-2        0.00000   0.00000   0.00000   0.00000   0.00044
  23        7D 0        0.00000   0.22377   0.00000   0.00000   0.00000
  24        7D+1        0.00000   0.00000   0.00000   0.93060   0.00000
  25        7D-1       -0.45137   0.00000   1.03670   0.00000   0.00000
  26        7D+2        0.00000  -1.04474   0.00000   0.00000   0.00000
  27        7D-2        0.00000   0.00000   0.00000   0.00000   1.13753
  28 2   H  1S          0.16464   0.28808  -0.37775   0.00000   0.00000
  29        2S         -1.55748  -2.25820   1.86804   0.00000   0.00000
  30        3S          1.19081   1.80659  -1.62239   0.00000   0.00000
  31        4PX         0.00000   0.00000   0.00000   0.82462  -0.75585
  32        4PY        -0.36556   0.12050  -0.28842   0.00000   0.00000
  33        4PZ        -0.63075  -0.01278  -0.26651   0.00000   0.00000
  34 3   H  1S         -0.16464   0.28808   0.37775   0.00000   0.00000
  35        2S          1.55748  -2.25820  -1.86804   0.00000   0.00000
  36        3S         -1.19081   1.80659   1.62239   0.00000   0.00000
  37        4PX         0.00000   0.00000   0.00000   0.82462   0.75585
  38        4PY        -0.36556  -0.12050  -0.28842   0.00000   0.00000
  39        4PZ         0.63075  -0.01278   0.26651   0.00000   0.00000
                          26        27        28        29        30
                        (A1)--V   (A1)--V   (B2)--V   (A1)--V   (B2)--V
     Eigenvalues --     2.27767   2.49080   2.50122   2.87508   2.97425
   1 1   O  1S          0.01388   0.00175   0.00000  -0.05073   0.00000
   2        2S          0.03757   0.01105   0.00000  -0.10059   0.00000
   3        2PX         0.00000   0.00000   0.00000   0.00000   0.00000
   4        2PY         0.00000   0.00000  -0.07343   0.00000   0.37388
   5        2PZ        -0.06307  -0.05514   0.00000  -0.25494   0.00000
   6        3S         -0.33150  -0.10314   0.00000   0.28819   0.00000
   7        3PX         0.00000   0.00000   0.00000   0.00000   0.00000
   8        3PY         0.00000   0.00000  -1.02158   0.00000   0.33437
   9        3PZ         0.29141   0.18645   0.00000  -0.62435   0.00000
  10        4S         -1.09094  -1.35350   0.00000   5.01692   0.00000
  11        4PX         0.00000   0.00000   0.00000   0.00000   0.00000
  12        4PY         0.00000   0.00000  -1.85477   0.00000   2.10645
  13        4PZ        -0.09351   1.02718   0.00000  -2.29335   0.00000
  14        5S          1.81509   1.39198   0.00000  -2.38661   0.00000
  15        5PX         0.00000   0.00000   0.00000   0.00000   0.00000
  16        5PY         0.00000   0.00000   0.91943   0.00000  -0.56269
  17        5PZ        -0.42111  -0.44375   0.00000   0.86694   0.00000
  18        6D 0        0.00469  -0.01365   0.00000   0.01000   0.00000
  19        6D+1        0.00000   0.00000   0.00000   0.00000   0.00000
  20        6D-1        0.00000   0.00000  -0.02870   0.00000   0.00314
  21        6D+2        0.00060   0.00033   0.00000   0.01854   0.00000
  22        6D-2        0.00000   0.00000   0.00000   0.00000   0.00000
  23        7D 0        0.78146  -0.87897   0.00000   0.15665   0.00000
  24        7D+1        0.00000   0.00000   0.00000   0.00000   0.00000
  25        7D-1        0.00000   0.00000   0.65803   0.00000  -1.63265
  26        7D+2        0.19063  -0.53744   0.00000  -1.24596   0.00000
  27        7D-2        0.00000   0.00000   0.00000   0.00000   0.00000
  28 2   H  1S         -0.75777  -0.73630  -0.57484  -0.30874  -0.95227
  29        2S          1.54209   1.68039   2.95528  -3.18261  -1.24902
  30        3S         -1.33313  -1.10960  -1.54079   1.47293   0.29961
  31        4PX         0.00000   0.00000   0.00000   0.00000   0.00000
  32        4PY        -0.01529  -0.70345  -1.10296   1.45864   0.77952
  33        4PZ         0.74850  -0.41487   0.87372  -0.85607  -0.54677
  34 3   H  1S         -0.75777  -0.73630   0.57484  -0.30874   0.95227
  35        2S          1.54209   1.68039  -2.95528  -3.18261   1.24902
  36        3S         -1.33313  -1.10960   1.54079   1.47293  -0.29961
  37        4PX         0.00000   0.00000   0.00000   0.00000   0.00000
  38        4PY         0.01529   0.70345  -1.10296  -1.45864   0.77952
  39        4PZ         0.74850  -0.41487  -0.87372  -0.85607   0.54677
                          31        32        33        34        35
                        (B1)--V   (A1)--V   (B2)--V   (B1)--V   (A2)--V
     Eigenvalues --     4.95940   5.35509   5.91137   6.78254   6.82134
   1 1   O  1S          0.00000  -0.01952   0.00000   0.00000   0.00000
   2        2S          0.00000  -0.03529   0.00000   0.00000   0.00000
   3        2PX        -1.27524   0.00000   0.00000  -0.00720   0.00000
   4        2PY         0.00000   0.00000  -1.29835   0.00000   0.00000
   5        2PZ         0.00000   1.28651   0.00000   0.00000   0.00000
   6        3S          0.00000   0.09179   0.00000   0.00000   0.00000
   7        3PX         1.51165   0.00000   0.00000   0.01993   0.00000
   8        3PY         0.00000   0.00000   2.27410   0.00000   0.00000
   9        3PZ         0.00000  -1.89390   0.00000   0.00000   0.00000
  10        4S          0.00000   1.97215   0.00000   0.00000   0.00000
  11        4PX        -0.80823   0.00000   0.00000   0.08104   0.00000
  12        4PY         0.00000   0.00000   0.54026   0.00000   0.00000
  13        4PZ         0.00000   0.01972   0.00000   0.00000   0.00000
  14        5S          0.00000  -0.91297   0.00000   0.00000   0.00000
  15        5PX         0.30278   0.00000   0.00000  -0.01142   0.00000
  16        5PY         0.00000   0.00000  -0.11830   0.00000   0.00000
  17        5PZ         0.00000   0.01515   0.00000   0.00000   0.00000
  18        6D 0        0.00000   0.03134   0.00000   0.00000   0.00000
  19        6D+1       -0.00495   0.00000   0.00000   1.13371   0.00000
  20        6D-1        0.00000   0.00000  -0.13668   0.00000   0.00000
  21        6D+2        0.00000  -0.01663   0.00000   0.00000   0.00000
  22        6D-2        0.00000   0.00000   0.00000   0.00000   1.14129
  23        7D 0        0.00000   0.04118   0.00000   0.00000   0.00000
  24        7D+1       -0.01764   0.00000   0.00000  -0.59223   0.00000
  25        7D-1        0.00000   0.00000  -0.90810   0.00000   0.00000
  26        7D+2        0.00000  -0.46070   0.00000   0.00000   0.00000
  27        7D-2        0.00000   0.00000   0.00000   0.00000  -0.65397
  28 2   H  1S          0.00000  -0.24862  -0.50019   0.00000   0.00000
  29        2S          0.00000  -1.07481  -1.16660   0.00000   0.00000
  30        3S          0.00000   0.49238   0.33299   0.00000   0.00000
  31        4PX        -0.04178   0.00000   0.00000  -0.11256   0.14617
  32        4PY         0.00000   0.61224   0.76365   0.00000   0.00000
  33        4PZ         0.00000  -0.34697  -0.58675   0.00000   0.00000
  34 3   H  1S          0.00000  -0.24862   0.50019   0.00000   0.00000
  35        2S          0.00000  -1.07481   1.16660   0.00000   0.00000
  36        3S          0.00000   0.49238  -0.33299   0.00000   0.00000
  37        4PX        -0.04178   0.00000   0.00000  -0.11256  -0.14617
  38        4PY         0.00000  -0.61224   0.76365   0.00000   0.00000
  39        4PZ         0.00000  -0.34697   0.58675   0.00000   0.00000
                          36        37        38        39
                        (A1)--V   (A1)--V   (B2)--V   (A1)--V
     Eigenvalues --     6.85886   6.95105   7.11520  49.94170
   1 1   O  1S         -0.00095   0.00048   0.00000  -2.24669
   2        2S         -0.00044   0.00196   0.00000   2.33861
   3        2PX         0.00000   0.00000   0.00000   0.00000
   4        2PY         0.00000   0.00000  -0.20906   0.00000
   5        2PZ         0.05909   0.00217   0.00000  -0.01515
   6        3S         -0.08051  -0.06222   0.00000  -0.27703
   7        3PX         0.00000   0.00000   0.00000   0.00000
   8        3PY         0.00000   0.00000   0.44220   0.00000
   9        3PZ        -0.13760  -0.00136   0.00000   0.06137
  10        4S          0.85283   0.35342   0.00000   0.07178
  11        4PX         0.00000   0.00000   0.00000   0.00000
  12        4PY         0.00000   0.00000   0.93986   0.00000
  13        4PZ        -0.45620  -0.04974   0.00000   0.04225
  14        5S         -0.30406  -0.10523   0.00000  -0.12315
  15        5PX         0.00000   0.00000   0.00000   0.00000
  16        5PY         0.00000   0.00000  -0.34308   0.00000
  17        5PZ         0.10800   0.02061   0.00000   0.01259
  18        6D 0       -0.84592   0.77741   0.00000   0.00019
  19        6D+1        0.00000   0.00000   0.00000   0.00000
  20        6D-1        0.00000   0.00000   1.17391   0.00000
  21        6D+2        0.76805   0.86194   0.00000   0.00122
  22        6D-2        0.00000   0.00000   0.00000   0.00000
  23        7D 0        0.49703  -0.54553   0.00000  -0.00066
  24        7D+1        0.00000   0.00000   0.00000   0.00000
  25        7D-1        0.00000   0.00000  -1.17146   0.00000
  26        7D+2       -0.50450  -0.61056   0.00000   0.03667
  27        7D-2        0.00000   0.00000   0.00000   0.00000
  28 2   H  1S         -0.04892  -0.06629  -0.27752   0.01021
  29        2S         -0.59141  -0.22316  -0.92510   0.08031
  30        3S          0.23583   0.08684   0.48978   0.03021
  31        4PX         0.00000   0.00000   0.00000   0.00000
  32        4PY         0.19569  -0.09639   0.25397  -0.06680
  33        4PZ         0.01180  -0.19466  -0.16725   0.04630
  34 3   H  1S         -0.04892  -0.06629   0.27752   0.01021
  35        2S         -0.59141  -0.22316   0.92510   0.08031
  36        3S          0.23583   0.08684  -0.48978   0.03021
  37        4PX         0.00000   0.00000   0.00000   0.00000
  38        4PY        -0.19569   0.09639   0.25397   0.06680
  39        4PZ         0.01180  -0.19466   0.16725   0.04630
     Density Matrix:
                           1         2         3         4         5
   1 1   O  1S          0.63890
   2        2S          0.56729   0.52050
   3        2PX         0.00000   0.00000   0.17348
   4        2PY         0.00000   0.00000   0.00000   0.11403
   5        2PZ        -0.01158  -0.01834   0.00000   0.00000   0.14219
   6        3S         -0.12973  -0.21934   0.00000   0.00000   0.05522
   7        3PX         0.00000   0.00000   0.25609   0.00000   0.00000
   8        3PY         0.00000   0.00000   0.00000   0.16531   0.00000
   9        3PZ        -0.01427  -0.02380   0.00000   0.00000   0.20639
  10        4S         -0.11416  -0.18158   0.00000   0.00000   0.12523
  11        4PX         0.00000   0.00000   0.23794   0.00000   0.00000
  12        4PY         0.00000   0.00000   0.00000   0.10082   0.00000
  13        4PZ        -0.01897  -0.03095   0.00000   0.00000   0.16276
  14        5S          0.00320   0.00227   0.00000   0.00000   0.00760
  15        5PX         0.00000   0.00000   0.06301   0.00000   0.00000
  16        5PY         0.00000   0.00000   0.00000   0.00646   0.00000
  17        5PZ        -0.00695  -0.01107   0.00000   0.00000   0.04103
  18        6D 0        0.00018   0.00029   0.00000   0.00000  -0.00230
  19        6D+1        0.00000   0.00000  -0.00249   0.00000   0.00000
  20        6D-1        0.00000   0.00000   0.00000  -0.00530   0.00000
  21        6D+2        0.00068   0.00121   0.00000   0.00000   0.00177
  22        6D-2        0.00000   0.00000   0.00000   0.00000   0.00000
  23        7D 0        0.00127   0.00214   0.00000   0.00000  -0.01321
  24        7D+1        0.00000   0.00000  -0.01429   0.00000   0.00000
  25        7D-1        0.00000   0.00000   0.00000  -0.00880   0.00000
  26        7D+2        0.00126   0.00238   0.00000   0.00000  -0.00178
  27        7D-2        0.00000   0.00000   0.00000   0.00000   0.00000
  28 2   H  1S         -0.01577  -0.02499   0.00000   0.07306  -0.05450
  29        2S         -0.00797  -0.01190   0.00000   0.09433  -0.07923
  30        3S         -0.00007   0.00087   0.00000   0.02329  -0.01176
  31        4PX         0.00000   0.00000   0.01793   0.00000   0.00000
  32        4PY         0.00452   0.00646   0.00000  -0.00790   0.01469
  33        4PZ        -0.00463  -0.00693   0.00000   0.01126   0.00377
  34 3   H  1S         -0.01577  -0.02499   0.00000  -0.07306  -0.05450
  35        2S         -0.00797  -0.01190   0.00000  -0.09433  -0.07923
  36        3S         -0.00007   0.00087   0.00000  -0.02329  -0.01176
  37        4PX         0.00000   0.00000   0.01793   0.00000   0.00000
  38        4PY        -0.00452  -0.00646   0.00000  -0.00790  -0.01469
  39        4PZ        -0.00463  -0.00693   0.00000  -0.01126   0.00377
                           6         7         8         9        10
   6        3S          0.67242
   7        3PX         0.00000   0.37802
   8        3PY         0.00000   0.00000   0.23964
   9        3PZ         0.07612   0.00000   0.00000   0.29960
  10        4S          0.52245   0.00000   0.00000   0.17879   0.45542
  11        4PX         0.00000   0.35124   0.00000   0.00000   0.00000
  12        4PY         0.00000   0.00000   0.14616   0.00000   0.00000
  13        4PZ         0.09455   0.00000   0.00000   0.23605   0.16615
  14        5S          0.00308   0.00000   0.00000   0.01104   0.00670
  15        5PX         0.00000   0.09301   0.00000   0.00000   0.00000
  16        5PY         0.00000   0.00000   0.00937   0.00000   0.00000
  17        5PZ         0.03262   0.00000   0.00000   0.05944   0.04829
  18        6D 0       -0.00089   0.00000   0.00000  -0.00334  -0.00202
  19        6D+1        0.00000  -0.00367   0.00000   0.00000   0.00000
  20        6D-1        0.00000   0.00000  -0.00768   0.00000   0.00000
  21        6D+2       -0.00387   0.00000   0.00000   0.00259  -0.00176
  22        6D-2        0.00000   0.00000   0.00000   0.00000   0.00000
  23        7D 0       -0.00679   0.00000   0.00000  -0.01917  -0.01284
  24        7D+1        0.00000  -0.02109   0.00000   0.00000   0.00000
  25        7D-1        0.00000   0.00000  -0.01276   0.00000   0.00000
  26        7D+2       -0.00812   0.00000   0.00000  -0.00254  -0.00697
  27        7D-2        0.00000   0.00000   0.00000   0.00000   0.00000
  28 2   H  1S          0.07007   0.00000   0.10592  -0.07969   0.01846
  29        2S          0.02982   0.00000   0.13675  -0.11539  -0.02562
  30        3S         -0.00602   0.00000   0.03376  -0.01707  -0.01139
  31        4PX         0.00000   0.02647   0.00000   0.00000   0.00000
  32        4PY        -0.01581   0.00000  -0.01145   0.02145  -0.00275
  33        4PZ         0.01850   0.00000   0.01633   0.00536   0.01574
  34 3   H  1S          0.07007   0.00000  -0.10592  -0.07969   0.01846
  35        2S          0.02982   0.00000  -0.13675  -0.11539  -0.02562
  36        3S         -0.00602   0.00000  -0.03376  -0.01707  -0.01139
  37        4PX         0.00000   0.02647   0.00000   0.00000   0.00000
  38        4PY         0.01581   0.00000  -0.01145  -0.02145   0.00275
  39        4PZ         0.01850   0.00000  -0.01633   0.00536   0.01574
                          11        12        13        14        15
  11        4PX         0.32636
  12        4PY         0.00000   0.08914
  13        4PZ         0.00000   0.00000   0.18781
  14        5S          0.00000   0.00000   0.00871   0.00043
  15        5PX         0.08642   0.00000   0.00000   0.00000   0.02288
  16        5PY         0.00000   0.00571   0.00000   0.00000   0.00000
  17        5PZ         0.00000   0.00000   0.04776   0.00219   0.00000
  18        6D 0        0.00000   0.00000  -0.00263  -0.00012   0.00000
  19        6D+1       -0.00341   0.00000   0.00000   0.00000  -0.00090
  20        6D-1        0.00000  -0.00468   0.00000   0.00000   0.00000
  21        6D+2        0.00000   0.00000   0.00180   0.00009   0.00000
  22        6D-2        0.00000   0.00000   0.00000   0.00000   0.00000
  23        7D 0        0.00000   0.00000  -0.01520  -0.00071   0.00000
  24        7D+1       -0.01960   0.00000   0.00000   0.00000  -0.00519
  25        7D-1        0.00000  -0.00778   0.00000   0.00000   0.00000
  26        7D+2        0.00000   0.00000  -0.00240  -0.00010   0.00000
  27        7D-2        0.00000   0.00000   0.00000   0.00000   0.00000
  28 2   H  1S          0.00000   0.06460  -0.05800  -0.00291   0.00000
  29        2S          0.00000   0.08341  -0.08778  -0.00424   0.00000
  30        3S          0.00000   0.02059  -0.01353  -0.00064   0.00000
  31        4PX         0.02459   0.00000   0.00000   0.00000   0.00651
  32        4PY         0.00000  -0.00699   0.01578   0.00079   0.00000
  33        4PZ         0.00000   0.00996   0.00514   0.00020   0.00000
  34 3   H  1S          0.00000  -0.06460  -0.05800  -0.00291   0.00000
  35        2S          0.00000  -0.08341  -0.08778  -0.00424   0.00000
  36        3S          0.00000  -0.02059  -0.01353  -0.00064   0.00000
  37        4PX         0.02459   0.00000   0.00000   0.00000   0.00651
  38        4PY         0.00000  -0.00699  -0.01578  -0.00079   0.00000
  39        4PZ         0.00000  -0.00996   0.00514   0.00020   0.00000
                          16        17        18        19        20
  16        5PY         0.00037
  17        5PZ         0.00000   0.01227
  18        6D 0        0.00000  -0.00066   0.00004
  19        6D+1        0.00000   0.00000   0.00000   0.00004
  20        6D-1       -0.00030   0.00000   0.00000   0.00000   0.00025
  21        6D+2        0.00000   0.00039  -0.00003   0.00000   0.00000
  22        6D-2        0.00000   0.00000   0.00000   0.00000   0.00000
  23        7D 0        0.00000  -0.00385   0.00021   0.00000   0.00000
  24        7D+1        0.00000   0.00000   0.00000   0.00020   0.00000
  25        7D-1       -0.00050   0.00000   0.00000   0.00000   0.00041
  26        7D+2        0.00000  -0.00070   0.00003   0.00000   0.00000
  27        7D-2        0.00000   0.00000   0.00000   0.00000   0.00000
  28 2   H  1S          0.00414  -0.01339   0.00088   0.00000  -0.00339
  29        2S          0.00535  -0.02131   0.00128   0.00000  -0.00438
  30        3S          0.00132  -0.00343   0.00019   0.00000  -0.00108
  31        4PX         0.00000   0.00000   0.00000  -0.00026   0.00000
  32        4PY        -0.00045   0.00368  -0.00024   0.00000   0.00037
  33        4PZ         0.00064   0.00153  -0.00006   0.00000  -0.00052
  34 3   H  1S         -0.00414  -0.01339   0.00088   0.00000   0.00339
  35        2S         -0.00535  -0.02131   0.00128   0.00000   0.00438
  36        3S         -0.00132  -0.00343   0.00019   0.00000   0.00108
  37        4PX         0.00000   0.00000   0.00000  -0.00026   0.00000
  38        4PY        -0.00045  -0.00368   0.00024   0.00000   0.00037
  39        4PZ        -0.00064   0.00153  -0.00006   0.00000   0.00052
                          21        22        23        24        25
  21        6D+2        0.00005
  22        6D-2        0.00000   0.00000
  23        7D 0       -0.00015   0.00000   0.00123
  24        7D+1        0.00000   0.00000   0.00000   0.00118
  25        7D-1        0.00000   0.00000   0.00000   0.00000   0.00068
  26        7D+2        0.00003   0.00000   0.00018   0.00000   0.00000
  27        7D-2        0.00000   0.00000   0.00000   0.00000   0.00000
  28 2   H  1S         -0.00132   0.00000   0.00483   0.00000  -0.00564
  29        2S         -0.00141   0.00000   0.00721   0.00000  -0.00728
  30        3S         -0.00014   0.00000   0.00110   0.00000  -0.00180
  31        4PX         0.00000   0.00000   0.00000  -0.00148   0.00000
  32        4PY         0.00033   0.00000  -0.00131   0.00000   0.00061
  33        4PZ        -0.00007   0.00000  -0.00039   0.00000  -0.00087
  34 3   H  1S         -0.00132   0.00000   0.00483   0.00000   0.00564
  35        2S         -0.00141   0.00000   0.00721   0.00000   0.00728
  36        3S         -0.00014   0.00000   0.00110   0.00000   0.00180
  37        4PX         0.00000   0.00000   0.00000  -0.00148   0.00000
  38        4PY        -0.00033   0.00000   0.00131   0.00000   0.00061
  39        4PZ        -0.00007   0.00000  -0.00039   0.00000   0.00087
                          26        27        28        29        30
  26        7D+2        0.00011
  27        7D-2        0.00000   0.00000
  28 2   H  1S         -0.00036   0.00000   0.08051
  29        2S          0.00030   0.00000   0.09932   0.12784
  30        3S          0.00016   0.00000   0.01923   0.02569   0.00574
  31        4PX         0.00000   0.00000   0.00000   0.00000   0.00000
  32        4PY         0.00006   0.00000  -0.01371  -0.01673  -0.00278
  33        4PZ        -0.00024   0.00000   0.00816   0.00881   0.00195
  34 3   H  1S         -0.00036   0.00000  -0.01312  -0.02157  -0.01061
  35        2S          0.00030   0.00000  -0.02157  -0.02824  -0.01284
  36        3S          0.00016   0.00000  -0.01061  -0.01284  -0.00378
  37        4PX         0.00000   0.00000   0.00000   0.00000   0.00000
  38        4PY        -0.00006   0.00000   0.00359   0.00366  -0.00044
  39        4PZ        -0.00024   0.00000  -0.00627  -0.00983  -0.00265
                          31        32        33        34        35
  31        4PX         0.00185
  32        4PY         0.00000   0.00278
  33        4PZ         0.00000  -0.00096   0.00166
  34 3   H  1S          0.00000  -0.00359  -0.00627   0.08051
  35        2S          0.00000  -0.00366  -0.00983   0.09932   0.12784
  36        3S          0.00000   0.00044  -0.00265   0.01923   0.02569
  37        4PX         0.00185   0.00000   0.00000   0.00000   0.00000
  38        4PY         0.00000  -0.00168  -0.00060   0.01371   0.01673
  39        4PZ         0.00000   0.00060  -0.00057   0.00816   0.00881
                          36        37        38        39
  36        3S          0.00574
  37        4PX         0.00000   0.00185
  38        4PY         0.00278   0.00000   0.00278
  39        4PZ         0.00195   0.00000   0.00096   0.00166
    Full Mulliken population analysis:
                           1         2         3         4         5
   1 1   O  1S          0.63890
   2        2S          0.51168   0.52050
   3        2PX         0.00000   0.00000   0.17348
   4        2PY         0.00000   0.00000   0.00000   0.11403
   5        2PZ         0.00000   0.00000   0.00000   0.00000   0.14219
   6        3S         -0.04573  -0.08806   0.00000   0.00000   0.00000
   7        3PX         0.00000   0.00000   0.15672   0.00000   0.00000
   8        3PY         0.00000   0.00000   0.00000   0.10117   0.00000
   9        3PZ         0.00000   0.00000   0.00000   0.00000   0.12631
  10        4S         -0.01803  -0.03092   0.00000   0.00000   0.00000
  11        4PX         0.00000   0.00000   0.04692   0.00000   0.00000
  12        4PY         0.00000   0.00000   0.00000   0.01988   0.00000
  13        4PZ         0.00000   0.00000   0.00000   0.00000   0.03210
  14        5S          0.00023   0.00017   0.00000   0.00000   0.00000
  15        5PX         0.00000   0.00000   0.00356   0.00000   0.00000
  16        5PY         0.00000   0.00000   0.00000   0.00037   0.00000
  17        5PZ         0.00000   0.00000   0.00000   0.00000   0.00232
  18        6D 0        0.00000   0.00000   0.00000   0.00000   0.00000
  19        6D+1        0.00000   0.00000   0.00000   0.00000   0.00000
  20        6D-1        0.00000   0.00000   0.00000   0.00000   0.00000
  21        6D+2        0.00000   0.00000   0.00000   0.00000   0.00000
  22        6D-2        0.00000   0.00000   0.00000   0.00000   0.00000
  23        7D 0        0.00000   0.00000   0.00000   0.00000   0.00000
  24        7D+1        0.00000   0.00000   0.00000   0.00000   0.00000
  25        7D-1        0.00000   0.00000   0.00000   0.00000   0.00000
  26        7D+2        0.00000   0.00000   0.00000   0.00000   0.00000
  27        7D-2        0.00000   0.00000   0.00000   0.00000   0.00000
  28 2   H  1S         -0.00022  -0.00032   0.00000   0.00455   0.00240
  29        2S         -0.00054  -0.00085   0.00000   0.00768   0.00456
  30        3S          0.00000   0.00005   0.00000   0.00057   0.00020
  31        4PX         0.00000   0.00000   0.00132   0.00000   0.00000
  32        4PY        -0.00036  -0.00055   0.00000   0.00095   0.00202
  33        4PZ        -0.00026  -0.00042   0.00000   0.00155  -0.00009
  34 3   H  1S         -0.00022  -0.00032   0.00000   0.00455   0.00240
  35        2S         -0.00054  -0.00085   0.00000   0.00768   0.00456
  36        3S          0.00000   0.00005   0.00000   0.00057   0.00020
  37        4PX         0.00000   0.00000   0.00132   0.00000   0.00000
  38        4PY        -0.00036  -0.00055   0.00000   0.00095   0.00202
  39        4PZ        -0.00026  -0.00042   0.00000   0.00155  -0.00009
                           6         7         8         9        10
   6        3S          0.67242
   7        3PX         0.00000   0.37802
   8        3PY         0.00000   0.00000   0.23964
   9        3PZ         0.00000   0.00000   0.00000   0.29960
  10        4S          0.39409   0.00000   0.00000   0.00000   0.45542
  11        4PX         0.00000   0.21955   0.00000   0.00000   0.00000
  12        4PY         0.00000   0.00000   0.09136   0.00000   0.00000
  13        4PZ         0.00000   0.00000   0.00000   0.14755   0.00000
  14        5S          0.00128   0.00000   0.00000   0.00000   0.00539
  15        5PX         0.00000   0.02171   0.00000   0.00000   0.00000
  16        5PY         0.00000   0.00000   0.00219   0.00000   0.00000
  17        5PZ         0.00000   0.00000   0.00000   0.01387   0.00000
  18        6D 0        0.00000   0.00000   0.00000   0.00000   0.00000
  19        6D+1        0.00000   0.00000   0.00000   0.00000   0.00000
  20        6D-1        0.00000   0.00000   0.00000   0.00000   0.00000
  21        6D+2        0.00000   0.00000   0.00000   0.00000   0.00000
  22        6D-2        0.00000   0.00000   0.00000   0.00000   0.00000
  23        7D 0        0.00000   0.00000   0.00000   0.00000   0.00000
  24        7D+1        0.00000   0.00000   0.00000   0.00000   0.00000
  25        7D-1        0.00000   0.00000   0.00000   0.00000   0.00000
  26        7D+2        0.00000   0.00000   0.00000   0.00000   0.00000
  27        7D-2        0.00000   0.00000   0.00000   0.00000   0.00000
  28 2   H  1S          0.01174   0.00000   0.02891   0.01537   0.00579
  29        2S          0.01123   0.00000   0.03842   0.02291  -0.01581
  30        3S         -0.00209   0.00000   0.00337   0.00120  -0.00770
  31        4PX         0.00000   0.00678   0.00000   0.00000   0.00000
  32        4PY         0.00571   0.00000   0.00235   0.00700   0.00078
  33        4PZ         0.00472   0.00000   0.00533   0.00014   0.00315
  34 3   H  1S          0.01174   0.00000   0.02891   0.01537   0.00579
  35        2S          0.01123   0.00000   0.03842   0.02291  -0.01581
  36        3S         -0.00209   0.00000   0.00337   0.00120  -0.00770
  37        4PX         0.00000   0.00678   0.00000   0.00000   0.00000
  38        4PY         0.00571   0.00000   0.00235   0.00700   0.00078
  39        4PZ         0.00472   0.00000   0.00533   0.00014   0.00315
                          11        12        13        14        15
  11        4PX         0.32636
  12        4PY         0.00000   0.08914
  13        4PZ         0.00000   0.00000   0.18781
  14        5S          0.00000   0.00000   0.00000   0.00043
  15        5PX         0.06000   0.00000   0.00000   0.00000   0.02288
  16        5PY         0.00000   0.00397   0.00000   0.00000   0.00000
  17        5PZ         0.00000   0.00000   0.03316   0.00000   0.00000
  18        6D 0        0.00000   0.00000   0.00000   0.00000   0.00000
  19        6D+1        0.00000   0.00000   0.00000   0.00000   0.00000
  20        6D-1        0.00000   0.00000   0.00000   0.00000   0.00000
  21        6D+2        0.00000   0.00000   0.00000   0.00000   0.00000
  22        6D-2        0.00000   0.00000   0.00000   0.00000   0.00000
  23        7D 0        0.00000   0.00000   0.00000   0.00000   0.00000
  24        7D+1        0.00000   0.00000   0.00000   0.00000   0.00000
  25        7D-1        0.00000   0.00000   0.00000   0.00000   0.00000
  26        7D+2        0.00000   0.00000   0.00000   0.00000   0.00000
  27        7D-2        0.00000   0.00000   0.00000   0.00000   0.00000
  28 2   H  1S          0.00000   0.02517   0.01597  -0.00074   0.00000
  29        2S          0.00000   0.04322   0.03215  -0.00247   0.00000
  30        3S          0.00000   0.00598   0.00278  -0.00054   0.00000
  31        4PX         0.00929   0.00000   0.00000   0.00000   0.00143
  32        4PY         0.00000  -0.00043   0.00353  -0.00008   0.00000
  33        4PZ         0.00000   0.00223   0.00113   0.00001   0.00000
  34 3   H  1S          0.00000   0.02517   0.01597  -0.00074   0.00000
  35        2S          0.00000   0.04322   0.03215  -0.00247   0.00000
  36        3S          0.00000   0.00598   0.00278  -0.00054   0.00000
  37        4PX         0.00929   0.00000   0.00000   0.00000   0.00143
  38        4PY         0.00000  -0.00043   0.00353  -0.00008   0.00000
  39        4PZ         0.00000   0.00223   0.00113   0.00001   0.00000
                          16        17        18        19        20
  16        5PY         0.00037
  17        5PZ         0.00000   0.01227
  18        6D 0        0.00000   0.00000   0.00004
  19        6D+1        0.00000   0.00000   0.00000   0.00004
  20        6D-1        0.00000   0.00000   0.00000   0.00000   0.00025
  21        6D+2        0.00000   0.00000   0.00000   0.00000   0.00000
  22        6D-2        0.00000   0.00000   0.00000   0.00000   0.00000
  23        7D 0        0.00000   0.00000   0.00010   0.00000   0.00000
  24        7D+1        0.00000   0.00000   0.00000   0.00009   0.00000
  25        7D-1        0.00000   0.00000   0.00000   0.00000   0.00019
  26        7D+2        0.00000   0.00000   0.00000   0.00000   0.00000
  27        7D-2        0.00000   0.00000   0.00000   0.00000   0.00000
  28 2   H  1S          0.00085   0.00194   0.00000   0.00000   0.00030
  29        2S          0.00213   0.00601   0.00000   0.00000   0.00017
  30        3S          0.00053   0.00098   0.00000   0.00000   0.00000
  31        4PX         0.00000   0.00000   0.00000   0.00002   0.00000
  32        4PY        -0.00007   0.00019   0.00001   0.00000   0.00004
  33        4PZ         0.00003   0.00028   0.00001   0.00000   0.00001
  34 3   H  1S          0.00085   0.00194   0.00000   0.00000   0.00030
  35        2S          0.00213   0.00601   0.00000   0.00000   0.00017
  36        3S          0.00053   0.00098   0.00000   0.00000   0.00000
  37        4PX         0.00000   0.00000   0.00000   0.00002   0.00000
  38        4PY        -0.00007   0.00019   0.00001   0.00000   0.00004
  39        4PZ         0.00003   0.00028   0.00001   0.00000   0.00001
                          21        22        23        24        25
  21        6D+2        0.00005
  22        6D-2        0.00000   0.00000
  23        7D 0        0.00000   0.00000   0.00123
  24        7D+1        0.00000   0.00000   0.00000   0.00118
  25        7D-1        0.00000   0.00000   0.00000   0.00000   0.00068
  26        7D+2        0.00001   0.00000   0.00000   0.00000   0.00000
  27        7D-2        0.00000   0.00000   0.00000   0.00000   0.00000
  28 2   H  1S          0.00008   0.00000   0.00000   0.00000   0.00217
  29        2S          0.00004   0.00000   0.00000   0.00000   0.00148
  30        3S          0.00000   0.00000   0.00000   0.00000   0.00006
  31        4PX         0.00000   0.00000   0.00000   0.00042   0.00000
  32        4PY         0.00001   0.00000   0.00031   0.00000   0.00009
  33        4PZ         0.00001   0.00000   0.00013   0.00000  -0.00008
  34 3   H  1S          0.00008   0.00000   0.00000   0.00000   0.00217
  35        2S          0.00004   0.00000   0.00000   0.00000   0.00148
  36        3S          0.00000   0.00000   0.00000   0.00000   0.00006
  37        4PX         0.00000   0.00000   0.00000   0.00042   0.00000
  38        4PY         0.00001   0.00000   0.00031   0.00000   0.00009
  39        4PZ         0.00001   0.00000   0.00013   0.00000  -0.00008
                          26        27        28        29        30
  26        7D+2        0.00011
  27        7D-2        0.00000   0.00000
  28 2   H  1S          0.00010   0.00000   0.08051
  29        2S         -0.00004   0.00000   0.07016   0.12784
  30        3S          0.00000   0.00000   0.00719   0.02027   0.00574
  31        4PX         0.00000   0.00000   0.00000   0.00000   0.00000
  32        4PY        -0.00001   0.00000   0.00000   0.00000   0.00000
  33        4PZ         0.00005   0.00000   0.00000   0.00000   0.00000
  34 3   H  1S          0.00010   0.00000  -0.00006  -0.00158  -0.00172
  35        2S         -0.00004   0.00000  -0.00158  -0.00675  -0.00510
  36        3S          0.00000   0.00000  -0.00172  -0.00510  -0.00241
  37        4PX         0.00000   0.00000   0.00000   0.00000   0.00000
  38        4PY        -0.00001   0.00000   0.00017   0.00068  -0.00007
  39        4PZ         0.00005   0.00000   0.00000   0.00000   0.00000
                          31        32        33        34        35
  31        4PX         0.00185
  32        4PY         0.00000   0.00278
  33        4PZ         0.00000   0.00000   0.00166
  34 3   H  1S          0.00000   0.00017   0.00000   0.08051
  35        2S          0.00000   0.00068   0.00000   0.07016   0.12784
  36        3S          0.00000  -0.00007   0.00000   0.00719   0.02027
  37        4PX         0.00007   0.00000   0.00000   0.00000   0.00000
  38        4PY         0.00000   0.00035   0.00000   0.00000   0.00000
  39        4PZ         0.00000   0.00000  -0.00002   0.00000   0.00000
                          36        37        38        39
  36        3S          0.00574
  37        4PX         0.00000   0.00185
  38        4PY         0.00000   0.00000   0.00278
  39        4PZ         0.00000   0.00000   0.00000   0.00166
     Gross orbital populations:
                           1
   1 1   O  1S          1.08427
   2        2S          0.90918
   3        2PX         0.38333
   4        2PY         0.26604
   5        2PZ         0.32109
   6        3S          0.99664
   7        3PX         0.78956
   8        3PY         0.59111
   9        3PZ         0.68058
  10        4S          0.77835
  11        4PX         0.67141
  12        4PY         0.35666
  13        4PZ         0.51171
  14        5S         -0.00013
  15        5PX         0.11102
  16        5PY         0.01385
  17        5PZ         0.08040
  18        6D 0        0.00017
  19        6D+1        0.00017
  20        6D-1        0.00149
  21        6D+2        0.00034
  22        6D-2        0.00000
  23        7D 0        0.00220
  24        7D+1        0.00212
  25        7D-1        0.00829
  26        7D+2        0.00031
  27        7D-2        0.00000
  28 2   H  1S          0.26870
  29        2S          0.35578
  30        3S          0.02927
  31        4PX         0.02119
  32        4PY         0.02542
  33        4PZ         0.01956
  34 3   H  1S          0.26870
  35        2S          0.35578
  36        3S          0.02927
  37        4PX         0.02119
  38        4PY         0.02542
  39        4PZ         0.01956
          Condensed to atoms (all electrons):
               1          2          3
     1  O    7.903413   0.328375   0.328375
     2  H    0.328375   0.415595  -0.024052
     3  H    0.328375  -0.024052   0.415595
 Mulliken charges:
               1
     1  O   -0.560164
     2  H    0.280082
     3  H    0.280082
 Sum of Mulliken charges =   0.00000
 Mulliken charges with hydrogens summed into heavy atoms:
               1
     1  O    0.000000
 Electronic spatial extent (au):  <R**2>=             19.8815
 Charge=              0.0000 electrons
 Dipole moment (field-independent basis, Debye):
    X=              0.0000    Y=              0.0000    Z=             -2.0096  Tot=              2.0096
 Quadrupole moment (field-independent basis, Debye-Ang):
   XX=             -7.7662   YY=             -4.1655   ZZ=             -6.5462
   XY=              0.0000   XZ=              0.0000   YZ=              0.0000
 Traceless Quadrupole moment (field-independent basis, Debye-Ang):
   XX=             -1.6069   YY=              1.9938   ZZ=             -0.3869
   XY=              0.0000   XZ=              0.0000   YZ=              0.0000
 Octapole moment (field-independent basis, Debye-Ang**2):
  XXX=              0.0000  YYY=              0.0000  ZZZ=             -1.3739  XYY=              0.0000
  XXY=              0.0000  XXZ=             -0.3930  XZZ=              0.0000  YZZ=              0.0000
  YYZ=             -1.4073  XYZ=              0.0000
 Hexadecapole moment (field-independent basis, Debye-Ang**3):
 XXXX=             -7.4337 YYYY=             -6.1174 ZZZZ=             -7.7389 XXXY=              0.0000
 XXXZ=              0.0000 YYYX=              0.0000 YYYZ=              0.0000 ZZZX=              0.0000
 ZZZY=              0.0000 XXYY=             -2.6031 XXZZ=             -2.5738 YYZZ=             -2.0358
 XXYZ=              0.0000 YYXZ=              0.0000 ZZXY=              0.0000
 N-N= 9.157115984281D+00 E-N=-1.991522381211D+02  KE= 7.616641937552D+01
 Symmetry A1   KE= 6.802398537619D+01
 Symmetry A2   KE= 6.729007521799D-35
 Symmetry B1   KE= 4.500895671701D+00
 Symmetry B2   KE= 3.641538327634D+00
 Orbital energies and kinetic energies (alpha):
                                 1                 2
   1         (A1)--O         -19.169824         29.146407
   2         (A1)--O          -1.033629          2.648410
   3         (B2)--O          -0.556577          1.820769
   4         (A1)--O          -0.395993          2.217176
   5         (B1)--O          -0.326822          2.250448
   6         (A1)--V           0.037393          0.825614
   7         (B2)--V           0.112662          0.867236
   8         (A1)--V           0.165124          0.508762
   9         (B1)--V           0.166641          0.606743
  10         (B2)--V           0.189635          0.330298
  11         (A1)--V           0.214309          0.440518
  12         (B2)--V           0.493133          1.636946
  13         (A1)--V           0.494084          1.749093
  14         (B2)--V           0.932646          2.237505
  15         (A1)--V           0.952261          2.467112
  16         (B1)--V           1.007456          2.779685
  17         (A2)--V           1.137240          1.928731
  18         (A1)--V           1.171079          2.141180
  19         (A1)--V           1.285621          3.533443
  20         (B1)--V           1.291652          2.033320
  21         (B2)--V           1.626297          2.362685
  22         (A1)--V           1.691244          3.007691
  23         (B2)--V           1.734501          2.831539
  24         (B1)--V           2.022725          2.726023
  25         (A2)--V           2.070729          2.812590
  26         (A1)--V           2.277674          3.455036
  27         (A1)--V           2.490799          3.616059
  28         (B2)--V           2.501222          3.557672
  29         (A1)--V           2.875076          4.705117
  30         (B2)--V           2.974250          5.285452
  31         (B1)--V           4.959401         11.771859
  32         (A1)--V           5.355088         11.935142
  33         (B2)--V           5.911372         12.318013
  34         (B1)--V           6.782544         10.176537
  35         (A2)--V           6.821344         10.225595
  36         (A1)--V           6.858859         10.246831
  37         (A1)--V           6.951050         10.361073
  38         (B2)--V           7.115201         10.571196
  39         (A1)--V          49.941699        123.731962
 Total kinetic energy from orbitals= 7.616641937552D+01
 R6APFD:  NTU= -4 IXU= 1 FactS= 1.050
 Calling FoFJK, ICntrl=      2127 FMM=F ISym2X=1 I1Cent= 0 IOpClX= 0 NMat=1 NMatS=1 NMatT=0.
 ***** Axes restored to original set *****
 -------------------------------------------------------------------
 Center     Atomic                   Forces (Hartrees/Bohr)
 Number     Number              X              Y              Z
 -------------------------------------------------------------------
      1        8          -0.004794649   -0.006784272    0.000000000
      2        1          -0.001953262    0.006466826    0.000000000
      3        1           0.006747911    0.000317445    0.000000000
 -------------------------------------------------------------------
 Cartesian Forces:  Max     0.006784272 RMS     0.004220126

 GradGradGradGradGradGradGradGradGradGradGradGradGradGradGradGradGradGrad
 Berny optimization.
 FormGI is forming the generalized inverse of G from B-inverse, IUseBI=4.
 Internal  Forces:  Max     0.011731710 RMS     0.006958531
 Search for a local minimum.
 Step number   1 out of a maximum of   20
 All quantities printed in internal units (Hartrees-Bohrs-Radians)
 Mixed Optimization -- RFO/linear search
 Second derivative matrix not updated -- first step.
 The second derivative matrix:
                          R1        R2        A1
           R1           0.55473
           R2           0.00000   0.55473
           A1           0.00000   0.00000   0.16000
 ITU=  0
     Eigenvalues ---    0.16000   0.55473   0.55473
 RFO step:  Lambda=-8.69291804D-04 EMin= 1.60000000D-01
 Linear search not attempted -- first point.
 Iteration  1 RMS(Cart)=  0.04150298 RMS(Int)=  0.00098768
 Iteration  2 RMS(Cart)=  0.00083713 RMS(Int)=  0.00000003
 Iteration  3 RMS(Cart)=  0.00000003 RMS(Int)=  0.00000000
 ClnCor:  largest displacement from symmetrization is 2.65D-15 for atom     1.
 Variable       Old X    -DE/DX   Delta X   Delta X   Delta X     New X
                                 (Linear)    (Quad)   (Total)
    R1        1.81414  -0.00195   0.00000  -0.00352  -0.00352   1.81062
    R2        1.81414  -0.00195   0.00000  -0.00352  -0.00352   1.81062
    A1        1.91114  -0.01173   0.00000  -0.07293  -0.07293   1.83821
         Item               Value     Threshold  Converged?
 Maximum Force            0.011732     0.000450     NO 
 RMS     Force            0.006959     0.000300     NO 
 Maximum Displacement     0.044104     0.001800     NO 
 RMS     Displacement     0.041896     0.001200     NO 
 Predicted change in Energy=-4.369682D-04
 GradGradGradGradGradGradGradGradGradGradGradGradGradGradGradGradGradGrad

                          Input orientation:                          
 ---------------------------------------------------------------------
 Center     Atomic      Atomic             Coordinates (Angstroms)
 Number     Number       Type             X           Y           Z
 ---------------------------------------------------------------------
      1          8           0       -1.354804    0.104960    0.000000
      2          1           0       -0.397301    0.139890    0.000000
      3          1           0       -1.641499    1.019202    0.000000
 ---------------------------------------------------------------------
                    Distance matrix (angstroms):
                    1          2          3
     1  O    0.000000
     2  H    0.958140   0.000000
     3  H    0.958140   1.523554   0.000000
 Stoichiometry    H2O
 Framework group  C2V[C2(O),SGV(H2)]
 Deg. of freedom     2
 Full point group                 C2V     NOp   4
 Largest Abelian subgroup         C2V     NOp   4
 Largest concise Abelian subgroup C2      NOp   2
                         Standard orientation:                         
 ---------------------------------------------------------------------
 Center     Atomic      Atomic             Coordinates (Angstroms)
 Number     Number       Type             X           Y           Z
 ---------------------------------------------------------------------
      1          8           0        0.000000    0.000000    0.116229
      2          1           0        0.000000    0.761777   -0.464914
      3          1           0        0.000000   -0.761777   -0.464914
 ---------------------------------------------------------------------
 Rotational constants (GHZ):    835.9525432    432.0620257    284.8416399
 Standard basis: 6-311+G(2d,p) (5D, 7F)
 There are    20 symmetry adapted cartesian basis functions of A1  symmetry.
 There are     3 symmetry adapted cartesian basis functions of A2  symmetry.
 There are     7 symmetry adapted cartesian basis functions of B1  symmetry.
 There are    11 symmetry adapted cartesian basis functions of B2  symmetry.
 There are    18 symmetry adapted basis functions of A1  symmetry.
 There are     3 symmetry adapted basis functions of A2  symmetry.
 There are     7 symmetry adapted basis functions of B1  symmetry.
 There are    11 symmetry adapted basis functions of B2  symmetry.
    39 basis functions,    58 primitive gaussians,    41 cartesian basis functions
     5 alpha electrons        5 beta electrons
       nuclear repulsion energy         9.1840753290 Hartrees.
 NAtoms=    3 NActive=    3 NUniq=    2 SFac= 2.25D+00 NAtFMM=   60 NAOKFM=F Big=F
 Integral buffers will be    262144 words long.
 Raffenetti 2 integral format.
 Two-electron integral symmetry is turned on.
 R6APFD:  NTU= -4 IXU= 1 FactS= 1.050
 Nuclear repulsion after empirical dispersion term =        9.1840753290 Hartrees.
 One-electron integrals computed using PRISM.
 NBasis=    39 RedAO= T EigKep=  4.22D-03  NBF=    18     3     7    11
 NBsUse=    39 1.00D-06 EigRej= -1.00D+00 NBFU=    18     3     7    11
 Initial guess from the checkpoint file:  "D:\mindmap\gaussian\calculate\opt_freq\H2O\H2O.chk"
 B after Tr=     0.000000    0.000000    0.000000
         Rot=    1.000000    0.000000    0.000000    0.000000 Ang=   0.00 deg.
 Initial guess orbital symmetries:
       Occupied  (A1) (A1) (B2) (A1) (B1)
       Virtual   (A1) (A1) (A1) (A1) (A1) (A1) (A1) (A1) (A1) (A1)
                 (A1) (A1) (A1) (A1) (A1) (A2) (A2) (A2) (B1) (B1)
                 (B1) (B1) (B1) (B1) (B2) (B2) (B2) (B2) (B2) (B2)
                 (B2) (B2) (B2) (B2)
 ExpMin= 8.45D-02 ExpMax= 8.59D+03 ExpMxC= 1.30D+03 IAcc=2 IRadAn=         4 AccDes= 0.00D+00
 Harris functional with IExCor= 3731 and IRadAn=       4 diagonalized for initial guess.
 HarFok:  IExCor= 3731 AccDes= 0.00D+00 IRadAn=         4 IDoV= 1 UseB2=F ITyADJ=14
 ICtDFT=  3500011 ScaDFX=  1.000000  1.000000  1.000000  1.000000
 FoFCou: FMM=F IPFlag=           0 FMFlag=      100000 FMFlg1=           0
         NFxFlg=           0 DoJE=T BraDBF=F KetDBF=T FulRan=T
         wScrn=  0.000000 ICntrl=     500 IOpCl=  0 I1Cent=   200000004 NGrid=           0
         NMat0=    1 NMatS0=      1 NMatT0=    0 NMatD0=    1 NMtDS0=    0 NMtDT0=    0
 Petite list used in FoFCou.
 Keep R1 ints in memory in symmetry-blocked form, NReq=1189054.
 Requested convergence on RMS density matrix=1.00D-08 within 128 cycles.
 Requested convergence on MAX density matrix=1.00D-06.
 Requested convergence on             energy=1.00D-06.
 No special actions if energy rises.
 Integral accuracy reduced to 1.0D-05 until final iterations.
 Initial convergence to 1.0D-05 achieved.  Increase integral accuracy.
 SCF Done:  E(RAPFD) =  -76.3962212057     A.U. after    9 cycles
            NFock=  9  Conv=0.45D-09     -V/T= 2.0028
 R6APFD:  NTU= -4 IXU= 1 FactS= 1.050
 Calling FoFJK, ICntrl=      2127 FMM=F ISym2X=1 I1Cent= 0 IOpClX= 0 NMat=1 NMatS=1 NMatT=0.
 ***** Axes restored to original set *****
 -------------------------------------------------------------------
 Center     Atomic                   Forces (Hartrees/Bohr)
 Number     Number              X              Y              Z
 -------------------------------------------------------------------
      1        8          -0.001747123   -0.002472121    0.000000000
      2        1           0.002064174    0.000394619    0.000000000
      3        1          -0.000317051    0.002077502    0.000000000
 -------------------------------------------------------------------
 Cartesian Forces:  Max     0.002472121 RMS     0.001414092

 GradGradGradGradGradGradGradGradGradGradGradGradGradGradGradGradGradGrad
 Berny optimization.
 Using GEDIIS/GDIIS optimizer.
 FormGI is forming the generalized inverse of G from B-inverse, IUseBI=4.
 Internal  Forces:  Max     0.002077188 RMS     0.001728511
 Search for a local minimum.
 Step number   2 out of a maximum of   20
 All quantities printed in internal units (Hartrees-Bohrs-Radians)
 Mixed Optimization -- RFO/linear search
 Update second derivatives using D2CorX and points    1    2
 DE= -4.54D-04 DEPred=-4.37D-04 R= 1.04D+00
 TightC=F SS=  1.41D+00  RLast= 7.31D-02 DXNew= 5.0454D-01 2.1929D-01
 Trust test= 1.04D+00 RLast= 7.31D-02 DXMaxT set to 3.00D-01
 The second derivative matrix:
                          R1        R2        A1
           R1           0.56963
           R2           0.01490   0.56963
           A1           0.02709   0.02709   0.15033
 ITU=  1  0
 Use linear search instead of GDIIS.
     Eigenvalues ---    0.14698   0.55473   0.58789
 RFO step:  Lambda=-1.78019287D-05 EMin= 1.46980811D-01
 Quartic linear search produced a step of  0.03138.
 Iteration  1 RMS(Cart)=  0.00282239 RMS(Int)=  0.00000782
 Iteration  2 RMS(Cart)=  0.00000885 RMS(Int)=  0.00000000
 Iteration  3 RMS(Cart)=  0.00000000 RMS(Int)=  0.00000000
 ClnCor:  largest displacement from symmetrization is 3.14D-15 for atom     3.
 Variable       Old X    -DE/DX   Delta X   Delta X   Delta X     New X
                                 (Linear)    (Quad)   (Total)
    R1        1.81062   0.00208  -0.00011   0.00390   0.00379   1.81441
    R2        1.81062   0.00208  -0.00011   0.00390   0.00379   1.81441
    A1        1.83821  -0.00058  -0.00229  -0.00282  -0.00511   1.83310
         Item               Value     Threshold  Converged?
 Maximum Force            0.002077     0.000450     NO 
 RMS     Force            0.001729     0.000300     NO 
 Maximum Displacement     0.003256     0.001800     NO 
 RMS     Displacement     0.002824     0.001200     NO 
 Predicted change in Energy=-9.387677D-06
 GradGradGradGradGradGradGradGradGradGradGradGradGradGradGradGradGradGrad

                          Input orientation:                          
 ---------------------------------------------------------------------
 Center     Atomic      Atomic             Coordinates (Angstroms)
 Number     Number       Type             X           Y           Z
 ---------------------------------------------------------------------
      1          8           0       -1.356021    0.103237    0.000000
      2          1           0       -0.396606    0.140690    0.000000
      3          1           0       -1.640976    1.020124    0.000000
 ---------------------------------------------------------------------
                    Distance matrix (angstroms):
                    1          2          3
     1  O    0.000000
     2  H    0.960146   0.000000
     3  H    0.960146   1.523765   0.000000
 Stoichiometry    H2O
 Framework group  C2V[C2(O),SGV(H2)]
 Deg. of freedom     2
 Full point group                 C2V     NOp   4
 Largest Abelian subgroup         C2V     NOp   4
 Largest concise Abelian subgroup C2      NOp   2
                         Standard orientation:                         
 ---------------------------------------------------------------------
 Center     Atomic      Atomic             Coordinates (Angstroms)
 Number     Number       Type             X           Y           Z
 ---------------------------------------------------------------------
      1          8           0        0.000000    0.000000    0.116862
      2          1           0        0.000000    0.761883   -0.467446
      3          1           0        0.000000   -0.761883   -0.467446
 ---------------------------------------------------------------------
 Rotational constants (GHZ):    826.9219694    431.9425485    283.7340936
 Standard basis: 6-311+G(2d,p) (5D, 7F)
 There are    20 symmetry adapted cartesian basis functions of A1  symmetry.
 There are     3 symmetry adapted cartesian basis functions of A2  symmetry.
 There are     7 symmetry adapted cartesian basis functions of B1  symmetry.
 There are    11 symmetry adapted cartesian basis functions of B2  symmetry.
 There are    18 symmetry adapted basis functions of A1  symmetry.
 There are     3 symmetry adapted basis functions of A2  symmetry.
 There are     7 symmetry adapted basis functions of B1  symmetry.
 There are    11 symmetry adapted basis functions of B2  symmetry.
    39 basis functions,    58 primitive gaussians,    41 cartesian basis functions
     5 alpha electrons        5 beta electrons
       nuclear repulsion energy         9.1655618655 Hartrees.
 NAtoms=    3 NActive=    3 NUniq=    2 SFac= 2.25D+00 NAtFMM=   60 NAOKFM=F Big=F
 Integral buffers will be    262144 words long.
 Raffenetti 2 integral format.
 Two-electron integral symmetry is turned on.
 R6APFD:  NTU= -4 IXU= 1 FactS= 1.050
 Nuclear repulsion after empirical dispersion term =        9.1655618655 Hartrees.
 One-electron integrals computed using PRISM.
 NBasis=    39 RedAO= T EigKep=  4.24D-03  NBF=    18     3     7    11
[...]
  17        5PZ         0.00000   0.01048
  18        6D 0        0.00000   0.00000   0.00005
  19        6D+1        0.00000   0.00000   0.00000   0.00004
  20        6D-1        0.00000   0.00000   0.00000   0.00000   0.00026
  21        6D+2        0.00000   0.00000   0.00000   0.00000   0.00000
  22        6D-2        0.00000   0.00000   0.00000   0.00000   0.00000
  23        7D 0        0.00000   0.00000   0.00011   0.00000   0.00000
  24        7D+1        0.00000   0.00000   0.00000   0.00010   0.00000
  25        7D-1        0.00000   0.00000   0.00000   0.00000   0.00020
  26        7D+2        0.00000   0.00000   0.00000   0.00000   0.00000
  27        7D-2        0.00000   0.00000   0.00000   0.00000   0.00000
  28 2   H  1S          0.00082   0.00193   0.00001   0.00000   0.00031
  29        2S          0.00209   0.00608   0.00000   0.00000   0.00018
  30        3S          0.00055   0.00116   0.00000   0.00000   0.00000
  31        4PX         0.00000   0.00000   0.00000   0.00002   0.00000
  32        4PY        -0.00006   0.00019   0.00002   0.00000   0.00004
  33        4PZ         0.00004   0.00023   0.00000   0.00000   0.00002
  34 3   H  1S          0.00082   0.00193   0.00001   0.00000   0.00031
  35        2S          0.00209   0.00608   0.00000   0.00000   0.00018
  36        3S          0.00055   0.00116   0.00000   0.00000   0.00000
  37        4PX         0.00000   0.00000   0.00000   0.00002   0.00000
  38        4PY        -0.00006   0.00019   0.00002   0.00000   0.00004
  39        4PZ         0.00004   0.00023   0.00000   0.00000   0.00002
                          21        22        23        24        25
  21        6D+2        0.00005
  22        6D-2        0.00000   0.00000
  23        7D 0        0.00000   0.00000   0.00121
  24        7D+1        0.00000   0.00000   0.00000   0.00125
  25        7D-1        0.00000   0.00000   0.00000   0.00000   0.00074
  26        7D+2        0.00001   0.00000   0.00000   0.00000   0.00000
  27        7D-2        0.00000   0.00000   0.00000   0.00000   0.00000
  28 2   H  1S          0.00008   0.00000   0.00013   0.00000   0.00229
  29        2S          0.00004   0.00000   0.00010   0.00000   0.00158
  30        3S          0.00000   0.00000   0.00000   0.00000   0.00007
  31        4PX         0.00000   0.00000   0.00000   0.00046   0.00000
  32        4PY         0.00001   0.00000   0.00035   0.00000   0.00008
  33        4PZ         0.00001   0.00000   0.00010   0.00000  -0.00006
  34 3   H  1S          0.00008   0.00000   0.00013   0.00000   0.00229
  35        2S          0.00004   0.00000   0.00010   0.00000   0.00158
  36        3S          0.00000   0.00000   0.00000   0.00000   0.00007
  37        4PX         0.00000   0.00000   0.00000   0.00046   0.00000
  38        4PY         0.00001   0.00000   0.00035   0.00000   0.00008
  39        4PZ         0.00001   0.00000   0.00010   0.00000  -0.00006
                          26        27        28        29        30
  26        7D+2        0.00010
  27        7D-2        0.00000   0.00000
  28 2   H  1S          0.00008   0.00000   0.08078
  29        2S         -0.00005   0.00000   0.07109   0.13120
  30        3S          0.00000   0.00000   0.00789   0.02259   0.00682
  31        4PX         0.00000   0.00000   0.00000   0.00000   0.00000
  32        4PY         0.00000   0.00000   0.00000   0.00000   0.00000
  33        4PZ         0.00005   0.00000   0.00000   0.00000   0.00000
  34 3   H  1S          0.00008   0.00000  -0.00007  -0.00159  -0.00175
  35        2S         -0.00005   0.00000  -0.00159  -0.00650  -0.00508
  36        3S          0.00000   0.00000  -0.00175  -0.00508  -0.00255
  37        4PX         0.00000   0.00000   0.00000   0.00000   0.00000
  38        4PY         0.00000   0.00000   0.00026   0.00096  -0.00001
  39        4PZ         0.00005   0.00000   0.00000   0.00000   0.00000
                          31        32        33        34        35
  31        4PX         0.00186
  32        4PY         0.00000   0.00273
  33        4PZ         0.00000   0.00000   0.00174
  34 3   H  1S          0.00000   0.00026   0.00000   0.08078
  35        2S          0.00000   0.00096   0.00000   0.07109   0.13120
  36        3S          0.00000  -0.00001   0.00000   0.00789   0.02259
  37        4PX         0.00008   0.00000   0.00000   0.00000   0.00000
  38        4PY         0.00000   0.00043   0.00000   0.00000   0.00000
  39        4PZ         0.00000   0.00000  -0.00003   0.00000   0.00000
                          36        37        38        39
  36        3S          0.00682
  37        4PX         0.00000   0.00186
  38        4PY         0.00000   0.00000   0.00273
  39        4PZ         0.00000   0.00000   0.00000   0.00174
     Gross orbital populations:
                           1
   1 1   O  1S          1.08429
   2        2S          0.90917
   3        2PX         0.38374
   4        2PY         0.26777
   5        2PZ         0.31662
   6        3S          1.00057
   7        3PX         0.79012
   8        3PY         0.59346
   9        3PZ         0.67295
  10        4S          0.78427
  11        4PX         0.67083
  12        4PY         0.36368
  13        4PZ         0.49508
  14        5S          0.00032
  15        5PX         0.11030
  16        5PY         0.01393
  17        5PZ         0.07402
  18        6D 0        0.00022
  19        6D+1        0.00018
  20        6D-1        0.00156
  21        6D+2        0.00031
  22        6D-2        0.00000
  23        7D 0        0.00270
  24        7D+1        0.00228
  25        7D-1        0.00885
  26        7D+2        0.00025
  27        7D-2        0.00000
  28 2   H  1S          0.26969
  29        2S          0.35858
  30        3S          0.03177
  31        4PX         0.02128
  32        4PY         0.02469
  33        4PZ         0.02027
  34 3   H  1S          0.26969
  35        2S          0.35858
  36        3S          0.03177
  37        4PX         0.02128
  38        4PY         0.02469
  39        4PZ         0.02027
          Condensed to atoms (all electrons):
               1          2          3
     1  O    7.905272   0.321079   0.321079
     2  H    0.321079   0.428279  -0.023072
     3  H    0.321079  -0.023072   0.428279
 Mulliken charges:
               1
     1  O   -0.547430
     2  H    0.273715
     3  H    0.273715
 Sum of Mulliken charges =   0.00000
 Mulliken charges with hydrogens summed into heavy atoms:
               1
     1  O    0.000000
 APT charges:
               1
     1  O   -0.553013
     2  H    0.276507
     3  H    0.276507
 Sum of APT charges =   0.00000
 APT charges with hydrogens summed into heavy atoms:
               1
     1  O    0.000000
 Electronic spatial extent (au):  <R**2>=             19.8702
 Charge=              0.0000 electrons
 Dipole moment (field-independent basis, Debye):
    X=              0.0000    Y=              0.0000    Z=             -2.0816  Tot=              2.0816
 Quadrupole moment (field-independent basis, Debye-Ang):
   XX=             -7.7565   YY=             -4.3615   ZZ=             -6.4082
   XY=              0.0000   XZ=              0.0000   YZ=              0.0000
 Traceless Quadrupole moment (field-independent basis, Debye-Ang):
   XX=             -1.5811   YY=              1.8139   ZZ=             -0.2328
   XY=              0.0000   XZ=              0.0000   YZ=              0.0000
 Octapole moment (field-independent basis, Debye-Ang**2):
  XXX=              0.0000  YYY=              0.0000  ZZZ=             -1.4574  XYY=              0.0000
  XXY=              0.0000  XXZ=             -0.4099  XZZ=              0.0000  YZZ=              0.0000
  YYZ=             -1.3945  XYZ=              0.0000
 Hexadecapole moment (field-independent basis, Debye-Ang**3):
 XXXX=             -7.4010 YYYY=             -6.2812 ZZZZ=             -7.7256 XXXY=              0.0000
 XXXZ=              0.0000 YYYX=              0.0000 YYYZ=              0.0000 ZZZX=              0.0000
 ZZZY=              0.0000 XXYY=             -2.5823 XXZZ=             -2.5761 YYZZ=             -2.0009
 XXYZ=              0.0000 YYXZ=              0.0000 ZZXY=              0.0000
 N-N= 9.165561865542D+00 E-N=-1.991663871758D+02  KE= 7.617503554629D+01
 Symmetry A1   KE= 6.801110421088D+01
 Symmetry A2   KE= 1.444429653122D-34
 Symmetry B1   KE= 4.505378809489D+00
 Symmetry B2   KE= 3.658552525920D+00
 Orbital energies and kinetic energies (alpha):
                                 1                 2
   1         (A1)--O         -19.171554         29.146480
   2         (A1)--O          -1.036664          2.641359
   3         (B2)--O          -0.548615          1.829276
   4         (A1)--O          -0.404258          2.217713
   5         (B1)--O          -0.327675          2.252689
   6         (A1)--V           0.036817          0.820512
   7         (B2)--V           0.112578          0.880924
   8         (A1)--V           0.165873          0.512101
   9         (B1)--V           0.166578          0.605991
  10         (B2)--V           0.188417          0.329050
  11         (A1)--V           0.219189          0.431034
  12         (B2)--V           0.484785          1.609765
  13         (A1)--V           0.502206          1.797708
  14         (B2)--V           0.937407          2.260151
  15         (A1)--V           0.951926          2.432317
  16         (B1)--V           1.006708          2.780632
  17         (A1)--V           1.141133          1.983669
  18         (A2)--V           1.146447          1.937851
  19         (B1)--V           1.276723          2.017910
  20         (A1)--V           1.285005          3.656486
  21         (B2)--V           1.658351          2.433823
  22         (A1)--V           1.699889          3.029379
  23         (B2)--V           1.719475          2.776744
  24         (A2)--V           2.049087          2.787254
  25         (B1)--V           2.051183          2.758714
  26         (A1)--V           2.329000          3.610629
  27         (A1)--V           2.405065          3.429748
  28         (B2)--V           2.514948          3.571465
  29         (A1)--V           2.862813          4.719379
  30         (B2)--V           2.992810          5.285389
  31         (B1)--V           4.958489         11.771270
  32         (A1)--V           5.394452         11.967044
  33         (B2)--V           5.880516         12.277230
  34         (B1)--V           6.789407         10.184350
  35         (A2)--V           6.812526         10.217393
  36         (A1)--V           6.883173         10.277962
  37         (A1)--V           6.935413         10.339903
  38         (B2)--V           7.110607         10.562943
  39         (A1)--V          49.938425        123.732521
 Total kinetic energy from orbitals= 7.617503554629D+01
  Exact polarizability:   6.972   0.000   8.227   0.000   0.000   6.860
 Approx polarizability:   7.182   0.000   9.977   0.000   0.000   7.987
 R6APFD:  NTU= -4 IXU= 1 FactS= 1.050
 Calling FoFJK, ICntrl=    100127 FMM=F ISym2X=1 I1Cent= 0 IOpClX= 0 NMat=1 NMatS=1 NMatT=0.
 Full mass-weighted force constant matrix:
 Low frequencies ---  -48.6766  -45.2415  -44.6996    0.0017    0.0017    0.0019
 Low frequencies --- 1623.9441 3862.2964 3970.0611
 Diagonal vibrational polarizability:
        0.0000000       0.1066806       0.8309571
 Harmonic frequencies (cm**-1), IR intensities (KM/Mole), Raman scattering
 activities (A**4/AMU), depolarization ratios for plane and unpolarized
 incident light, reduced masses (AMU), force constants (mDyne/A),
 and normal coordinates:
                      1                      2                      3
                     A1                     A1                     B2
 Frequencies --   1623.9441              3862.2964              3970.0611
 Red. masses --      1.0830                 1.0448                 1.0824
 Frc consts  --      1.6828                 9.1832                10.0514
 IR Inten    --     79.7435                 9.5431                62.4808
  Atom  AN      X      Y      Z        X      Y      Z        X      Y      Z
     1   8     0.00   0.00   0.07     0.00   0.00   0.05     0.00   0.07   0.00
     2   1     0.00  -0.43  -0.56     0.00   0.59  -0.39     0.00  -0.56   0.43
     3   1     0.00   0.43  -0.56     0.00  -0.59  -0.39     0.00  -0.56  -0.43

 -------------------
 - Thermochemistry -
 -------------------
 Temperature   298.150 Kelvin.  Pressure   1.00000 Atm.
 Atom     1 has atomic number  8 and mass  15.99491
 Atom     2 has atomic number  1 and mass   1.00783
 Atom     3 has atomic number  1 and mass   1.00783
 Molecular mass:    18.01056 amu.
 Principal axes and moments of inertia in atomic units:
                           1         2         3
     Eigenvalues --     2.18248   4.17820   6.36068
           X            0.00000   0.00000   1.00000
           Y            1.00000   0.00000   0.00000
           Z            0.00000   1.00000   0.00000
 This molecule is an asymmetric top.
 Rotational symmetry number  2.
 Rotational temperatures (Kelvin)     39.68595    20.72995    13.61707
 Rotational constants (GHZ):         826.92197   431.94255   283.73409
 Zero-point vibrational energy      56561.2 (Joules/Mol)
                                   13.51846 (Kcal/Mol)
 Vibrational temperatures:   2336.49  5556.98  5712.03
          (Kelvin)
 
 Zero-point correction=                           0.021543 (Hartree/Particle)
 Thermal correction to Energy=                    0.024379
 Thermal correction to Enthalpy=                  0.025323
 Thermal correction to Gibbs Free Energy=         0.003906
 Sum of electronic and zero-point Energies=            -76.374688
 Sum of electronic and thermal Energies=               -76.371853
 Sum of electronic and thermal Enthalpies=             -76.370908
 Sum of electronic and thermal Free Energies=          -76.392325
 
                     E (Thermal)             CV                S
                      KCal/Mol        Cal/Mol-Kelvin    Cal/Mol-Kelvin
 Total                   15.298              6.010             45.075
 Electronic               0.000              0.000              0.000
 Translational            0.889              2.981             34.608
 Rotational               0.889              2.981             10.460
 Vibrational             13.520              0.048              0.007
                       Q            Log10(Q)             Ln(Q)
 Total Bot       0.159723D-01         -1.796634         -4.136902
 Total V=0       0.129555D+09          8.112456         18.679619
 Vib (Bot)       0.123334D-09         -9.908918        -22.816126
 Vib (V=0)       0.100040D+01          0.000172          0.000395
 Electronic      0.100000D+01          0.000000          0.000000
 Translational   0.300432D+07          6.477746         14.915562
 Rotational      0.431060D+02          1.634538          3.763662
 ***** Axes restored to original set *****
 -------------------------------------------------------------------
 Center     Atomic                   Forces (Hartrees/Bohr)
 Number     Number              X              Y              Z
 -------------------------------------------------------------------
      1        8          -0.000107864   -0.000152624    0.000000000
      2        1           0.000148892    0.000009201    0.000000000
      3        1          -0.000041028    0.000143423    0.000000000
 -------------------------------------------------------------------
 Cartesian Forces:  Max     0.000152624 RMS     0.000093948
 FormGI is forming the generalized inverse of G from B-inverse, IUseBI=4.

 GradGradGradGradGradGradGradGradGradGradGradGradGradGradGradGradGradGrad
 Berny optimization.
 Internal  Forces:  Max     0.000149138 RMS     0.000121822
 Search for a local minimum.
 Step number   1 out of a maximum of    2
 All quantities printed in internal units (Hartrees-Bohrs-Radians)
 Second derivative matrix not updated -- analytic derivatives used.
 The second derivative matrix:
                          R1        R2        A1
           R1           0.55115
           R2          -0.00580   0.55115
           A1           0.03009   0.03009   0.15685
 ITU=  0
     Eigenvalues ---    0.15224   0.54995   0.55694
 Angle between quadratic step and forces=  18.62 degrees.
 Linear search not attempted -- first point.
 Iteration  1 RMS(Cart)=  0.00017484 RMS(Int)=  0.00000001
 Iteration  2 RMS(Cart)=  0.00000001 RMS(Int)=  0.00000000
 ClnCor:  largest displacement from symmetrization is 1.11D-15 for atom     1.
 Variable       Old X    -DE/DX   Delta X   Delta X   Delta X     New X
                                 (Linear)    (Quad)   (Total)
    R1        1.81441   0.00015   0.00000   0.00028   0.00028   1.81469
    R2        1.81441   0.00015   0.00000   0.00028   0.00028   1.81469
    A1        1.83310  -0.00001   0.00000  -0.00015  -0.00015   1.83295
         Item               Value     Threshold  Converged?
 Maximum Force            0.000149     0.000450     YES
 RMS     Force            0.000122     0.000300     YES
 Maximum Displacement     0.000169     0.001800     YES
 RMS     Displacement     0.000175     0.001200     YES
 Predicted change in Energy=-4.244899D-08
 Optimization completed.
    -- Stationary point found.
                           ----------------------------
                           !   Optimized Parameters   !
                           ! (Angstroms and Degrees)  !
 --------------------------                            --------------------------
 ! Name  Definition              Value          Derivative Info.                !
 --------------------------------------------------------------------------------
 ! R1    R(1,2)                  0.9601         -DE/DX =    0.0001              !
 ! R2    R(1,3)                  0.9601         -DE/DX =    0.0001              !
 ! A1    A(2,1,3)              105.0289         -DE/DX =    0.0                 !
 --------------------------------------------------------------------------------
 GradGradGradGradGradGradGradGradGradGradGradGradGradGradGradGradGradGrad

 1|1|UNPC-DESKTOP-KC5UJLK|Freq|RAPFD|6-311+G(2d,p)|H2O1|23122|11-Mar-20
 22|0||#N Geom=AllCheck Guess=TCheck SCRF=Check GenChk RAPFD/6-311+G(2d
 ,p) Freq||opt freq(GC)||0,1|O,-1.3560214934,0.1032374226,0.|H,-0.39660
 6264,0.1406903572,0.|H,-1.640976192,1.0201240702,0.||Version=IA32W-G09
 RevD.01|State=1-A1|HF=-76.3962311|RMSD=1.060e-009|RMSF=9.395e-005|Zero
 Point=0.021543|Thermal=0.0243785|Dipole=0.4726718,0.6688151,0.|DipoleD
 eriv=-0.4821475,0.0663178,0.,0.0663178,-0.4351788,0.,0.,0.,-0.7417132,
 0.1739429,-0.0465874,0.,-0.0672749,0.2847203,0.,0.,0.,0.3708566,0.3082
 047,-0.0197303,0.,0.0009572,0.1504585,0.,0.,0.,0.3708566|Polar=7.77140
 49,-0.6443538,7.3150496,0.,0.,6.9718133|PG=C02V [C2(O1),SGV(H2)]|NImag
 =0||0.62084649,-0.11384377,0.54021810,0.,0.,-0.00016051,-0.53559804,0.
 00728912,0.,0.55167104,-0.05292250,-0.04493425,0.,0.00309492,0.0470395
 7,0.,0.,0.00008025,0.,0.,-0.00007823,-0.08524845,0.10655465,0.,-0.0160
 7301,0.04982758,0.,0.10132145,0.16676628,-0.49528384,0.,-0.01038405,-0
 .00210532,0.,-0.15638223,0.49738916,0.,0.,0.00008025,0.,0.,-0.00000202
 ,0.,0.,-0.00007823||0.00010786,0.00015262,0.,-0.00014889,-0.00000920,0
 .,0.00004103,-0.00014342,0.|||@


 IF THE FACTS DO NOT CONFORM TO THE THEORY, THEY MUST BE DISPOSED OF.
 Job cpu time:       0 days  0 hours  0 minutes 11.0 seconds.
 File lengths (MBytes):  RWF=      5 Int=      0 D2E=      0 Chk=      1 Scr=      1
 Normal termination of Gaussian 09 at Fri Mar 11 13:39:08 2022.
