 Entering Link 1 = C:\G09W\l1.exe PID=      5232.
  
 Copyright (c) 1988,1990,1992,1993,1995,1998,2003,2009,2013,
            Gaussian, Inc.  All Rights Reserved.
  
 This is part of the Gaussian(R) 09 program.  It is based on
 the Gaussian(R) 03 system (copyright 2003, Gaussian, Inc.),
 the Gaussian(R) 98 system (copyright 1998, Gaussian, Inc.),
 the Gaussian(R) 94 system (copyright 1995, Gaussian, Inc.),
 the Gaussian 92(TM) system (copyright 1992, Gaussian, Inc.),
 the Gaussian 90(TM) system (copyright 1990, Gaussian, Inc.),
 the Gaussian 88(TM) system (copyright 1988, Gaussian, Inc.),
 the Gaussian 86(TM) system (copyright 1986, Carnegie Mellon
 University), and the Gaussian 82(TM) system (copyright 1983,
 Carnegie Mellon University). Gaussian is a federally registered
 trademark of Gaussian, Inc.
  
 This software contains proprietary and confidential information,
 including trade secrets, belonging to Gaussian, Inc.
  
 This software is provided under written license and may be
 used, copied, transmitted, or stored only in accord with that
 written license.
  
 The following legend is applicable only to US Government
 contracts under FAR:
  
                    RESTRICTED RIGHTS LEGEND
  
 Use, reproduction and disclosure by the US Government is
 subject to restrictions as set forth in subparagraphs (a)
 and (c) of the Commercial Computer Software - Restricted
 Rights clause in FAR 52.227-19.
  
 Gaussian, Inc.
 340 Quinnipiac St., Bldg. 40, Wallingford CT 06492
  
  
 ---------------------------------------------------------------
 Warning -- This program may not be used in any manner that
 competes with the business of Gaussian, Inc. or will provide
 assistance to any competitor of Gaussian, Inc.  The licensee
 of this program is prohibited from giving any competitor of
 Gaussian, Inc. access to this program.  By using this program,
 the user acknowledges that Gaussian, Inc. is engaged in the
 business of creating and licensing software in the field of
 computational chemistry and represents and warrants to the
 licensee that it is not a competitor of Gaussian, Inc. and that
 it will not use this program in any manner prohibited above.
 ---------------------------------------------------------------
  

 Cite this work as:
 Gaussian 09, Revision D.01,
 M. J. Frisch, G. W. Trucks, H. B. Schlegel, G. E. Scuseria, 
 M. A. Robb, J. R. Cheeseman, G. Scalmani, V. Barone, B. Mennucci, 
 G. A. Petersson, H. Nakatsuji, M. Caricato, X. Li, H. P. Hratchian, 
 A. F. Izmaylov, J. Bloino, G. Zheng, J. L. Sonnenberg, M. Hada, 
 M. Ehara, K. Toyota, R. Fukuda, J. Hasegawa, M. Ishida, T. Nakajima, 
 Y. Honda, O. Kitao, H. Nakai, T. Vreven, J. A. Montgomery, Jr., 
 J. E. Peralta, F. Ogliaro, M. Bearpark, J. J. Heyd, E. Brothers, 
 K. N. Kudin, V. N. Staroverov, T. Keith, R. Kobayashi, J. Normand, 
 K. Raghavachari, A. Rendell, J. C. Burant, S. S. Iyengar, J. Tomasi, 
 M. Cossi, N. Rega, J. M. Millam, M. Klene, J. E. Knox, J. B. Cross, 
 V. Bakken, C. Adamo, J. Jaramillo, R. Gomperts, R. E. Stratmann, 
 O. Yazyev, A. J. Austin, R. Cammi, C. Pomelli, J. W. Ochterski, 
 R. L. Martin, K. Morokuma, V. G. Zakrzewski, G. A. Voth, 
 P. Salvador, J. J. Dannenberg, S. Dapprich, A. D. Daniels, 
 O. Farkas, J. B. Foresman, J. V. Ortiz, J. Cioslowski, 
 and D. J. Fox, Gaussian, Inc., Wallingford CT, 2013.
 
 ******************************************
 Gaussian 09:  IA32W-G09RevD.01 24-Apr-2013
                13-Mar-2022 
 ******************************************
 %nprocshared=4
 Will use up to    4 processors via shared memory.
 %mem=1GB
 --------------
 # opt freq pm6
 --------------
 1/14=-1,18=20,19=15,26=1,38=1/1,3;
 2/9=110,12=2,17=6,18=5,40=1/2;
 3/5=2,16=1,25=1,41=3900000,71=1/1,2,3;
 4/35=1/1;
 5/5=2,35=1,38=5/2;
 6/7=2,8=2,9=2,10=2,28=1/1;
 7//1,2,3,16;
 1/14=-1,18=20,19=15,26=1/3(2);
 2/9=110/2;
 99//99;
 2/9=110/2;
 3/5=2,16=1,25=1,41=3900000,71=1,135=20/1,2,3;
 4/5=5,16=3,35=1/1;
 5/5=2,35=1,38=5/2;
 7//1,2,3,16;
 1/14=-1,18=20,19=15,26=1/3(-5);
 2/9=110/2;
 6/7=2,8=2,9=2,10=2,19=2,28=1/1;
 99/9=1/99;
 ------------
 opt freq(GC)
 ------------
 Symbolic Z-matrix:
 Charge =  0 Multiplicity = 1
 O                    -1.34438   0.11971   0. 
 H                    -0.38438   0.11971   0. 
 H                    -1.66484   1.02464   0. 
 

 GradGradGradGradGradGradGradGradGradGradGradGradGradGradGradGradGradGrad
 Berny optimization.
 Initialization pass.
                           ----------------------------
                           !    Initial Parameters    !
                           ! (Angstroms and Degrees)  !
 --------------------------                            --------------------------
 ! Name  Definition              Value          Derivative Info.                !
 --------------------------------------------------------------------------------
 ! R1    R(1,2)                  0.96           estimate D2E/DX2                !
 ! R2    R(1,3)                  0.96           estimate D2E/DX2                !
 ! A1    A(2,1,3)              109.5            estimate D2E/DX2                !
 --------------------------------------------------------------------------------
 Trust Radius=3.00D-01 FncErr=1.00D-07 GrdErr=1.00D-07
 Number of steps in this run=     20 maximum allowed number of steps=    100.
 GradGradGradGradGradGradGradGradGradGradGradGradGradGradGradGradGradGrad

                          Input orientation:                          
 ---------------------------------------------------------------------
 Center     Atomic      Atomic             Coordinates (Angstroms)
 Number     Number       Type             X           Y           Z
 ---------------------------------------------------------------------
      1          8           0       -1.344383    0.119705    0.000000
      2          1           0       -0.384383    0.119705    0.000000
      3          1           0       -1.664838    1.024641    0.000000
 ---------------------------------------------------------------------
                    Distance matrix (angstroms):
                    1          2          3
     1  O    0.000000
     2  H    0.960000   0.000000
     3  H    0.960000   1.567952   0.000000
 Stoichiometry    H2O
 Framework group  C2V[C2(O),SGV(H2)]
 Deg. of freedom     2
 Full point group                 C2V     NOp   4
 Largest Abelian subgroup         C2V     NOp   4
 Largest concise Abelian subgroup C2      NOp   2
                         Standard orientation:                         
 ---------------------------------------------------------------------
 Center     Atomic      Atomic             Coordinates (Angstroms)
 Number     Number       Type             X           Y           Z
 ---------------------------------------------------------------------
      1          8           0        0.000000    0.000000    0.110812
      2          1           0        0.000000    0.783976   -0.443248
      3          1           0        0.000000   -0.783976   -0.443248
 ---------------------------------------------------------------------
 Rotational constants (GHZ):    919.6759643    407.9403261    282.5913749
 Standard basis: VSTO-6G (5D, 7F)
 There are     3 symmetry adapted cartesian basis functions of A1  symmetry.
 There are     0 symmetry adapted cartesian basis functions of A2  symmetry.
 There are     1 symmetry adapted cartesian basis functions of B1  symmetry.
 There are     2 symmetry adapted cartesian basis functions of B2  symmetry.
 There are     3 symmetry adapted basis functions of A1  symmetry.
 There are     0 symmetry adapted basis functions of A2  symmetry.
 There are     1 symmetry adapted basis functions of B1  symmetry.
 There are     2 symmetry adapted basis functions of B2  symmetry.
     6 basis functions,    36 primitive gaussians,     6 cartesian basis functions
     4 alpha electrons        4 beta electrons
       nuclear repulsion energy        16.7166010967 Hartrees.
 Integral buffers will be    262144 words long.
 Regular integral format.
 Two-electron integral symmetry is turned off.
 Do NDO integrals.
 One-electron integrals computed using PRISM.
 NBasis=     6 RedAO= T EigKep=  1.00D+00  NBF=     3     0     1     2
 NBsUse=     6 1.00D-06 EigRej= -1.00D+00 NBFU=     3     0     1     2
 Simple Huckel Guess.
 Initial guess orbital symmetries:
       Occupied  (A1) (B2) (A1) (B1)
       Virtual   (B2) (A1)
 The electronic state of the initial guess is 1-A1.
 Overlap will be assumed to be unity.
 Keep J ints in memory in canonical form, NReq=877681.
 Requested convergence on RMS density matrix=1.00D-08 within 128 cycles.
 Requested convergence on MAX density matrix=1.00D-06.
 Requested convergence on             energy=1.00D-06.
 No special actions if energy rises.
 Fock symm off for IB=4 I1=    1 I=    5 J=    3 Cut=1.00D-07 Err=3.93D-02
 Fock matrix is not symmetric: symmetry in diagonalization turned off.
 SCF Done:  E(RPM6) = -0.861427762269E-01 A.U. after    9 cycles
            NFock=  8  Conv=0.13D-08     -V/T= 0.9764

 **********************************************************************

            Population analysis using the SCF density.

 **********************************************************************

 Orbital symmetries:
       Occupied  (A1) (B2) (A1) (B1)
       Virtual   (A1) (B2)
 The electronic state is 1-A1.
 Alpha  occ. eigenvalues --   -1.10522  -0.69737  -0.51524  -0.43590
 Alpha virt. eigenvalues --    0.14450   0.22152
          Condensed to atoms (all electrons):
               1          2          3
     1  O    6.627229   0.000000   0.000000
     2  H    0.000000   0.686385   0.000000
     3  H    0.000000   0.000000   0.686385
 Mulliken charges:
               1
     1  O   -0.627229
     2  H    0.313615
     3  H    0.313615
 Sum of Mulliken charges =   0.00000
 Mulliken charges with hydrogens summed into heavy atoms:
               1
     1  O    0.000000
 Charge=              0.0000 electrons
 Dipole moment (field-independent basis, Debye):
    X=              0.0000    Y=              0.0000    Z=             -2.0640  Tot=              2.0640
 N-N= 1.671660109668D+01 E-N=-2.444510537409D+01  KE=-3.652916460094D+00
 Symmetry A1   KE=-2.351021502191D+00
 Symmetry A2   KE= 0.000000000000D+00
 Symmetry B1   KE=-3.487334432847D-01
 Symmetry B2   KE=-9.531615146183D-01
 Calling FoFJK, ICntrl=      2127 FMM=F ISym2X=1 I1Cent= 0 IOpClX= 0 NMat=1 NMatS=1 NMatT=0.
 ***** Axes restored to original set *****
 -------------------------------------------------------------------
 Center     Atomic                   Forces (Hartrees/Bohr)
 Number     Number              X              Y              Z
 -------------------------------------------------------------------
      1        8           0.000762045    0.001078268    0.000000000
      2        1          -0.006712840    0.003935752    0.000000000
      3        1           0.005950795   -0.005014020    0.000000000
 -------------------------------------------------------------------
 Cartesian Forces:  Max     0.006712840 RMS     0.003694562

 GradGradGradGradGradGradGradGradGradGradGradGradGradGradGradGradGradGrad
 Berny optimization.
 FormGI is forming the generalized inverse of G from B-inverse, IUseBI=4.
 Internal  Forces:  Max     0.007139994 RMS     0.006858181
 Search for a local minimum.
 Step number   1 out of a maximum of   20
 All quantities printed in internal units (Hartrees-Bohrs-Radians)
 Mixed Optimization -- RFO/linear search
 Second derivative matrix not updated -- first step.
 The second derivative matrix:
                          R1        R2        A1
           R1           0.55473
           R2           0.00000   0.55473
           A1           0.00000   0.00000   0.16000
 ITU=  0
     Eigenvalues ---    0.16000   0.55473   0.55473
 RFO step:  Lambda=-4.79990222D-04 EMin= 1.60000000D-01
 Linear search not attempted -- first point.
 Iteration  1 RMS(Cart)=  0.02968712 RMS(Int)=  0.00040379
 Iteration  2 RMS(Cart)=  0.00029113 RMS(Int)=  0.00000004
 Iteration  3 RMS(Cart)=  0.00000004 RMS(Int)=  0.00000000
 ClnCor:  largest displacement from symmetrization is 4.97D-16 for atom     3.
 Variable       Old X    -DE/DX   Delta X   Delta X   Delta X     New X
                                 (Linear)    (Quad)   (Total)
    R1        1.81414  -0.00671   0.00000  -0.01209  -0.01209   1.80205
    R2        1.81414  -0.00671   0.00000  -0.01209  -0.01209   1.80205
    A1        1.91114  -0.00714   0.00000  -0.04449  -0.04449   1.86664
         Item               Value     Threshold  Converged?
 Maximum Force            0.007140     0.000450     NO 
 RMS     Force            0.006858     0.000300     NO 
 Maximum Displacement     0.032159     0.001800     NO 
 RMS     Displacement     0.029782     0.001200     NO 
 Predicted change in Energy=-2.405416D-04
 GradGradGradGradGradGradGradGradGradGradGradGradGradGradGradGradGradGrad

                          Input orientation:                          
 ---------------------------------------------------------------------
 Center     Atomic      Atomic             Coordinates (Angstroms)
 Number     Number       Type             X           Y           Z
 ---------------------------------------------------------------------
      1          8           0       -1.349575    0.112359    0.000000
      2          1           0       -0.396209    0.133571    0.000000
      3          1           0       -1.647820    1.018122    0.000000
 ---------------------------------------------------------------------
                    Distance matrix (angstroms):
                    1          2          3
     1  O    0.000000
     2  H    0.953602   0.000000
     3  H    0.953602   1.532632   0.000000
 Stoichiometry    H2O
 Framework group  C2V[C2(O),SGV(H2)]
 Deg. of freedom     2
 Full point group                 C2V     NOp   4
 Largest Abelian subgroup         C2V     NOp   4
 Largest concise Abelian subgroup C2      NOp   2
                         Standard orientation:                         
 ---------------------------------------------------------------------
 Center     Atomic      Atomic             Coordinates (Angstroms)
 Number     Number       Type             X           Y           Z
 ---------------------------------------------------------------------
      1          8           0        0.000000    0.000000    0.113511
      2          1           0        0.000000    0.766316   -0.454042
      3          1           0        0.000000   -0.766316   -0.454042
 ---------------------------------------------------------------------
 Rotational constants (GHZ):    876.4648438    426.9591004    287.1012481
 Standard basis: VSTO-6G (5D, 7F)
 There are     3 symmetry adapted cartesian basis functions of A1  symmetry.
 There are     0 symmetry adapted cartesian basis functions of A2  symmetry.
 There are     1 symmetry adapted cartesian basis functions of B1  symmetry.
 There are     2 symmetry adapted cartesian basis functions of B2  symmetry.
 There are     3 symmetry adapted basis functions of A1  symmetry.
 There are     0 symmetry adapted basis functions of A2  symmetry.
 There are     1 symmetry adapted basis functions of B1  symmetry.
 There are     2 symmetry adapted basis functions of B2  symmetry.
     6 basis functions,    36 primitive gaussians,     6 cartesian basis functions
     4 alpha electrons        4 beta electrons
       nuclear repulsion energy        16.7433140317 Hartrees.
 Integral buffers will be    262144 words long.
 Regular integral format.
 Two-electron integral symmetry is turned off.
 Do NDO integrals.
 One-electron integrals computed using PRISM.
 NBasis=     6 RedAO= T EigKep=  1.00D+00  NBF=     3     0     1     2
 NBsUse=     6 1.00D-06 EigRej= -1.00D+00 NBFU=     3     0     1     2
 Initial guess from the checkpoint file:  "C:\G09W\gxx.chk"
 B after Tr=     0.000000    0.000000    0.000000
         Rot=    1.000000    0.000000    0.000000    0.000000 Ang=   0.00 deg.
 Initial guess orbital symmetries:
       Occupied  (A1) (B2) (A1) (B1)
       Virtual   (A1) (B2)
 Overlap will be assumed to be unity.
 Keep J ints in memory in canonical form, NReq=877681.
 Requested convergence on RMS density matrix=1.00D-08 within 128 cycles.
 Requested convergence on MAX density matrix=1.00D-06.
 Requested convergence on             energy=1.00D-06.
 No special actions if energy rises.
 Fock symm off for IB=4 I1=    1 I=    5 J=    3 Cut=1.00D-07 Err=1.61D-03
 Fock matrix is not symmetric: symmetry in diagonalization turned off.
 SCF Done:  E(RPM6) = -0.863928476500E-01 A.U. after    7 cycles
            NFock=  6  Conv=0.18D-10     -V/T= 0.9764
 Calling FoFJK, ICntrl=      2127 FMM=F ISym2X=1 I1Cent= 0 IOpClX= 0 NMat=1 NMatS=1 NMatT=0.
 ***** Axes restored to original set *****
 -------------------------------------------------------------------
 Center     Atomic                   Forces (Hartrees/Bohr)
 Number     Number              X              Y              Z
 -------------------------------------------------------------------
      1        8           0.001161062    0.001642864    0.000000000
      2        1          -0.001381942   -0.000255051    0.000000000
      3        1           0.000220880   -0.001387814    0.000000000
 -------------------------------------------------------------------
 Cartesian Forces:  Max     0.001642864 RMS     0.000942614

 GradGradGradGradGradGradGradGradGradGradGradGradGradGradGradGradGradGrad
 Berny optimization.
 Using GEDIIS/GDIIS optimizer.
 FormGI is forming the generalized inverse of G from B-inverse, IUseBI=4.
 Internal  Forces:  Max     0.001387273 RMS     0.001156483
 Search for a local minimum.
 Step number   2 out of a maximum of   20
 All quantities printed in internal units (Hartrees-Bohrs-Radians)
 Mixed Optimization -- RFO/linear search
 Update second derivatives using D2CorX and points    1    2
 DE= -2.50D-04 DEPred=-2.41D-04 R= 1.04D+00
 TightC=F SS=  1.41D+00  RLast= 4.77D-02 DXNew= 5.0454D-01 1.4299D-01
 Trust test= 1.04D+00 RLast= 4.77D-02 DXMaxT set to 3.00D-01
 The second derivative matrix:
                          R1        R2        A1
           R1           0.52187
           R2          -0.03286   0.52187
           A1          -0.01319  -0.01319   0.17673
 ITU=  1  0
 Use linear search instead of GDIIS.
     Eigenvalues ---    0.17562   0.49012   0.55473
 RFO step:  Lambda=-8.00302262D-06 EMin= 1.75620681D-01
 Quartic linear search produced a step of  0.03252.
 Iteration  1 RMS(Cart)=  0.00173986 RMS(Int)=  0.00000184
 Iteration  2 RMS(Cart)=  0.00000202 RMS(Int)=  0.00000000
 Iteration  3 RMS(Cart)=  0.00000000 RMS(Int)=  0.00000000
 ClnCor:  largest displacement from symmetrization is 1.49D-15 for atom     3.
 Variable       Old X    -DE/DX   Delta X   Delta X   Delta X     New X
                                 (Linear)    (Quad)   (Total)
    R1        1.80205  -0.00139  -0.00039  -0.00239  -0.00278   1.79927
    R2        1.80205  -0.00139  -0.00039  -0.00239  -0.00278   1.79927
    A1        1.86664   0.00040  -0.00145   0.00337   0.00192   1.86857
         Item               Value     Threshold  Converged?
 Maximum Force            0.001387     0.000450     NO 
 RMS     Force            0.001156     0.000300     NO 
 Maximum Displacement     0.001658     0.001800     YES
 RMS     Displacement     0.001740     0.001200     NO 
 Predicted change in Energy=-4.243321D-06
 GradGradGradGradGradGradGradGradGradGradGradGradGradGradGradGradGradGrad

                          Input orientation:                          
 ---------------------------------------------------------------------
 Center     Atomic      Atomic             Coordinates (Angstroms)
 Number     Number       Type             X           Y           Z
 ---------------------------------------------------------------------
      1          8           0       -1.348955    0.113236    0.000000
      2          1           0       -0.397040    0.133500    0.000000
      3          1           0       -1.647609    1.017315    0.000000
 ---------------------------------------------------------------------
                    Distance matrix (angstroms):
                    1          2          3
     1  O    0.000000
     2  H    0.952131   0.000000
     3  H    0.952131   1.531357   0.000000
 Stoichiometry    H2O
 Framework group  C2V[C2(O),SGV(H2)]
 Deg. of freedom     2
 Full point group                 C2V     NOp   4
 Largest Abelian subgroup         C2V     NOp   4
 Largest concise Abelian subgroup C2      NOp   2
                         Standard orientation:                         
 ---------------------------------------------------------------------
 Center     Atomic      Atomic             Coordinates (Angstroms)
 Number     Number       Type             X           Y           Z
 ---------------------------------------------------------------------
      1          8           0        0.000000    0.000000    0.113188
      2          1           0        0.000000    0.765678   -0.452753
      3          1           0        0.000000   -0.765678   -0.452753
 ---------------------------------------------------------------------
 Rotational constants (GHZ):    881.4632275    427.6705800    287.9582573
 Standard basis: VSTO-6G (5D, 7F)
 There are     3 symmetry adapted cartesian basis functions of A1  symmetry.
 There are     0 symmetry adapted cartesian basis functions of A2  symmetry.
 There are     1 symmetry adapted cartesian basis functions of B1  symmetry.
 There are     2 symmetry adapted cartesian basis functions of B2  symmetry.
 There are     3 symmetry adapted basis functions of A1  symmetry.
 There are     0 symmetry adapted basis functions of A2  symmetry.
 There are     1 symmetry adapted basis functions of B1  symmetry.
 There are     2 symmetry adapted basis functions of B2  symmetry.
     6 basis functions,    36 primitive gaussians,     6 cartesian basis functions
     4 alpha electrons        4 beta electrons
       nuclear repulsion energy        16.7484427262 Hartrees.
 Integral buffers will be    262144 words long.
 Regular integral format.
 Two-electron integral symmetry is turned off.
 Do NDO integrals.
 One-electron integrals computed using PRISM.
 NBasis=     6 RedAO= T EigKep=  1.00D+00  NBF=     3     0     1     2
 NBsUse=     6 1.00D-06 EigRej= -1.00D+00 NBFU=     3     0     1     2
 Initial guess from the checkpoint file:  "C:\G09W\gxx.chk"
 B after Tr=     0.000000    0.000000    0.000000
         Rot=    1.000000    0.000000    0.000000    0.000000 Ang=   0.00 deg.
 Initial guess orbital symmetries:
       Occupied  (A1) (B2) (A1) (B1)
       Virtual   (A1) (B2)
 Overlap will be assumed to be unity.
 Keep J ints in memory in canonical form, NReq=877681.
 Requested convergence on RMS density matrix=1.00D-08 within 128 cycles.
 Requested convergence on MAX density matrix=1.00D-06.
 Requested convergence on             energy=1.00D-06.
 No special actions if energy rises.
 Fock symm off for IB=4 I1=    1 I=    5 J=    3 Cut=1.00D-07 Err=3.46D-04
 Fock matrix is not symmetric: symmetry in diagonalization turned off.
 SCF Done:  E(RPM6) = -0.863999075011E-01 A.U. after    6 cycles
            NFock=  5  Conv=0.57D-08     -V/T= 0.9765
 Calling FoFJK, ICntrl=      2127 FMM=F ISym2X=1 I1Cent= 0 IOpClX= 0 NMat=1 NMatS=1 NMatT=0.
 ***** Axes restored to original set *****
 -------------------------------------------------------------------
 Center     Atomic                   Forces (Hartrees/Bohr)
 Number     Number              X              Y              Z
 -------------------------------------------------------------------
      1        8           0.000823122    0.001164690    0.000000000
      2        1          -0.000848173   -0.000273778    0.000000000
      3        1           0.000025052   -0.000890912    0.000000000
 -------------------------------------------------------------------
 Cartesian Forces:  Max     0.001164690 RMS     0.000634450

 GradGradGradGradGradGradGradGradGradGradGradGradGradGradGradGradGradGrad
 Berny optimization.
 Using GEDIIS/GDIIS optimizer.
 FormGI is forming the generalized inverse of G from B-inverse, IUseBI=4.
 Internal  Forces:  Max     0.000853808 RMS     0.000746008
 Search for a local minimum.
 Step number   3 out of a maximum of   20
 All quantities printed in internal units (Hartrees-Bohrs-Radians)
 Mixed Optimization -- En-DIIS/RFO-DIIS
 Update second derivatives using D2CorX and points    1    2    3
 DE= -7.06D-06 DEPred=-4.24D-06 R= 1.66D+00
 TightC=F SS=  1.41D+00  RLast= 4.38D-03 DXNew= 5.0454D-01 1.3130D-02
 Trust test= 1.66D+00 RLast= 4.38D-03 DXMaxT set to 3.00D-01
 The second derivative matrix:
                          R1        R2        A1
           R1           0.39652
           R2          -0.15822   0.39652
           A1           0.06709   0.06709   0.16490
 ITU=  1  1  0
 Use linear search instead of GDIIS.
     Eigenvalues ---    0.09988   0.30333   0.55473
 RFO step:  Lambda=-2.01727125D-06 EMin= 9.98766067D-02
 Quartic linear search produced a step of  1.98384.
 Iteration  1 RMS(Cart)=  0.00416938 RMS(Int)=  0.00001698
 Iteration  2 RMS(Cart)=  0.00001896 RMS(Int)=  0.00000000
 Iteration  3 RMS(Cart)=  0.00000000 RMS(Int)=  0.00000000
 ClnCor:  largest displacement from symmetrization is 1.63D-15 for atom     1.
 Variable       Old X    -DE/DX   Delta X   Delta X   Delta X     New X
                                 (Linear)    (Quad)   (Total)
    R1        1.79927  -0.00085  -0.00552  -0.00019  -0.00571   1.79356
    R2        1.79927  -0.00085  -0.00552  -0.00019  -0.00571   1.79356
    A1        1.86857   0.00046   0.00381   0.00364   0.00746   1.87602
         Item               Value     Threshold  Converged?
 Maximum Force            0.000854     0.000450     NO 
 RMS     Force            0.000746     0.000300     NO 
 Maximum Displacement     0.004778     0.001800     NO 
 RMS     Displacement     0.004168     0.001200     NO 
 Predicted change in Energy=-6.539429D-06
 GradGradGradGradGradGradGradGradGradGradGradGradGradGradGradGradGradGrad

                          Input orientation:                          
 ---------------------------------------------------------------------
 Center     Atomic      Atomic             Coordinates (Angstroms)
 Number     Number       Type             X           Y           Z
 ---------------------------------------------------------------------
      1          8           0       -1.347168    0.115765    0.000000
      2          1           0       -0.398203    0.132427    0.000000
      3          1           0       -1.648233    1.015861    0.000000
 ---------------------------------------------------------------------
                    Distance matrix (angstroms):
                    1          2          3
     1  O    0.000000
     2  H    0.949111   0.000000
     3  H    0.949111   1.530696   0.000000
 Stoichiometry    H2O
 Framework group  C2V[C2(O),SGV(H2)]
 Deg. of freedom     2
 Full point group                 C2V     NOp   4
 Largest Abelian subgroup         C2V     NOp   4
 Largest concise Abelian subgroup C2      NOp   2
                         Standard orientation:                         
 ---------------------------------------------------------------------
 Center     Atomic      Atomic             Coordinates (Angstroms)
 Number     Number       Type             X           Y           Z
 ---------------------------------------------------------------------
      1          8           0        0.000000    0.000000    0.112260
      2          1           0        0.000000    0.765348   -0.449038
      3          1           0        0.000000   -0.765348   -0.449038
 ---------------------------------------------------------------------
 Rotational constants (GHZ):    896.1093852    428.0398001    289.6731625
 Standard basis: VSTO-6G (5D, 7F)
 There are     3 symmetry adapted cartesian basis functions of A1  symmetry.
 There are     0 symmetry adapted cartesian basis functions of A2  symmetry.
 There are     1 symmetry adapted cartesian basis functions of B1  symmetry.
 There are     2 symmetry adapted cartesian basis functions of B2  symmetry.
 There are     3 symmetry adapted basis functions of A1  symmetry.
 There are     0 symmetry adapted basis functions of A2  symmetry.
 There are     1 symmetry adapted basis functions of B1  symmetry.
 There are     2 symmetry adapted basis functions of B2  symmetry.
     6 basis functions,    36 primitive gaussians,     6 cartesian basis functions
     4 alpha electrons        4 beta electrons
       nuclear repulsion energy        16.7586896816 Hartrees.
 Integral buffers will be    262144 words long.
 Regular integral format.
 Two-electron integral symmetry is turned off.
 Do NDO integrals.
 One-electron integrals computed using PRISM.
 NBasis=     6 RedAO= T EigKep=  1.00D+00  NBF=     3     0     1     2
 NBsUse=     6 1.00D-06 EigRej= -1.00D+00 NBFU=     3     0     1     2
 Initial guess from the checkpoint file:  "C:\G09W\gxx.chk"
 B after Tr=     0.000000    0.000000    0.000000
         Rot=    1.000000    0.000000    0.000000    0.000000 Ang=   0.00 deg.
 Initial guess orbital symmetries:
       Occupied  (A1) (B2) (A1) (B1)
       Virtual   (A1) (B2)
 Overlap will be assumed to be unity.
 Keep J ints in memory in canonical form, NReq=877681.
 Requested convergence on RMS density matrix=1.00D-08 within 128 cycles.
 Requested convergence on MAX density matrix=1.00D-06.
 Requested convergence on             energy=1.00D-06.
 No special actions if energy rises.
 Fock symm off for IB=4 I1=    1 I=    5 J=    3 Cut=1.00D-07 Err=1.00D-03
 Fock matrix is not symmetric: symmetry in diagonalization turned off.
 SCF Done:  E(RPM6) = -0.864066590404E-01 A.U. after    7 cycles
            NFock=  6  Conv=0.14D-10     -V/T= 0.9765
 Calling FoFJK, ICntrl=      2127 FMM=F ISym2X=1 I1Cent= 0 IOpClX= 0 NMat=1 NMatS=1 NMatT=0.
 ***** Axes restored to original set *****
 -------------------------------------------------------------------
 Center     Atomic                   Forces (Hartrees/Bohr)
 Number     Number              X              Y              Z
 -------------------------------------------------------------------
      1        8           0.000029103    0.000041180    0.000000000
      2        1           0.000025162   -0.000048657    0.000000000
      3        1          -0.000054265    0.000007476    0.000000000
 -------------------------------------------------------------------
 Cartesian Forces:  Max     0.000054265 RMS     0.000030811

 GradGradGradGradGradGradGradGradGradGradGradGradGradGradGradGradGradGrad
 Berny optimization.
 Using GEDIIS/GDIIS optimizer.
 FormGI is forming the generalized inverse of G from B-inverse, IUseBI=4.
 Internal  Forces:  Max     0.000088048 RMS     0.000054570
 Search for a local minimum.
 Step number   4 out of a maximum of   20
 All quantities printed in internal units (Hartrees-Bohrs-Radians)
 Mixed Optimization -- En-DIIS/RFO-DIIS
 Swapping is turned off.
 Update second derivatives using D2CorX and points    1    2    3    4
 DE= -6.75D-06 DEPred=-6.54D-06 R= 1.03D+00
 TightC=F SS=  1.41D+00  RLast= 1.10D-02 DXNew= 5.0454D-01 3.2959D-02
 Trust test= 1.03D+00 RLast= 1.10D-02 DXMaxT set to 3.00D-01
 The second derivative matrix:
                          R1        R2        A1
           R1           0.39261
           R2          -0.16212   0.39261
           A1           0.05862   0.05862   0.13960
 ITU=  1  1  1  0
     Eigenvalues ---    0.09051   0.27958   0.55473
 En-DIIS/RFO-DIIS IScMMF=        0 using points:     4    3
 RFO step:  Lambda=-2.17562464D-08.
 DidBck=F Rises=F RFO-DIIS coefs:    1.02963   -0.02963
 Iteration  1 RMS(Cart)=  0.00035850 RMS(Int)=  0.00000009
 Iteration  2 RMS(Cart)=  0.00000008 RMS(Int)=  0.00000000
 ClnCor:  largest displacement from symmetrization is 1.24D-15 for atom     2.
 Variable       Old X    -DE/DX   Delta X   Delta X   Delta X     New X
                                 (Linear)    (Quad)   (Total)
    R1        1.79356   0.00002  -0.00017   0.00010  -0.00007   1.79349
    R2        1.79356   0.00002  -0.00017   0.00010  -0.00007   1.79349
    A1        1.87602   0.00009   0.00022   0.00047   0.00069   1.87671
         Item               Value     Threshold  Converged?
 Maximum Force            0.000088     0.000450     YES
 RMS     Force            0.000055     0.000300     YES
 Maximum Displacement     0.000356     0.001800     YES
 RMS     Displacement     0.000358     0.001200     YES
 Predicted change in Energy=-2.865090D-08
 Optimization completed.
    -- Stationary point found.
                           ----------------------------
                           !   Optimized Parameters   !
                           ! (Angstroms and Degrees)  !
 --------------------------                            --------------------------
 ! Name  Definition              Value          Derivative Info.                !
 --------------------------------------------------------------------------------
 ! R1    R(1,2)                  0.9491         -DE/DX =    0.0                 !
 ! R2    R(1,3)                  0.9491         -DE/DX =    0.0                 !
 ! A1    A(2,1,3)              107.4882         -DE/DX =    0.0001              !
 --------------------------------------------------------------------------------
 GradGradGradGradGradGradGradGradGradGradGradGradGradGradGradGradGradGrad

                          Input orientation:                          
 ---------------------------------------------------------------------
 Center     Atomic      Atomic             Coordinates (Angstroms)
 Number     Number       Type             X           Y           Z
 ---------------------------------------------------------------------
      1          8           0       -1.347168    0.115765    0.000000
      2          1           0       -0.398203    0.132427    0.000000
      3          1           0       -1.648233    1.015861    0.000000
 ---------------------------------------------------------------------
                    Distance matrix (angstroms):
                    1          2          3
     1  O    0.000000
     2  H    0.949111   0.000000
     3  H    0.949111   1.530696   0.000000
 Stoichiometry    H2O
 Framework group  C2V[C2(O),SGV(H2)]
 Deg. of freedom     2
 Full point group                 C2V     NOp   4
 Largest Abelian subgroup         C2V     NOp   4
 Largest concise Abelian subgroup C2      NOp   2
                         Standard orientation:                         
 ---------------------------------------------------------------------
 Center     Atomic      Atomic             Coordinates (Angstroms)
 Number     Number       Type             X           Y           Z
 ---------------------------------------------------------------------
      1          8           0        0.000000    0.000000    0.112260
      2          1           0        0.000000    0.765348   -0.449038
      3          1           0        0.000000   -0.765348   -0.449038
 ---------------------------------------------------------------------
 Rotational constants (GHZ):    896.1093852    428.0398001    289.6731625

 **********************************************************************

            Population analysis using the SCF density.

 **********************************************************************

 Orbital symmetries:
       Occupied  (A1) (B2) (A1) (B1)
       Virtual   (A1) (B2)
 The electronic state is 1-A1.
 Alpha  occ. eigenvalues --   -1.11721  -0.69747  -0.51868  -0.43743
 Alpha virt. eigenvalues --    0.14940   0.22185
          Condensed to atoms (all electrons):
               1          2          3
     1  O    6.618408   0.000000   0.000000
     2  H    0.000000   0.690796   0.000000
     3  H    0.000000   0.000000   0.690796
 Mulliken charges:
               1
     1  O   -0.618408
     2  H    0.309204
     3  H    0.309204
 Sum of Mulliken charges =   0.00000
 Mulliken charges with hydrogens summed into heavy atoms:
               1
     1  O    0.000000
 Charge=              0.0000 electrons
 Dipole moment (field-independent basis, Debye):
    X=              0.0000    Y=              0.0000    Z=             -2.0689  Tot=              2.0689
 N-N= 1.675868968160D+01 E-N=-2.447538215867D+01  KE=-3.673220201653D+00
 Symmetry A1   KE=-2.376092675183D+00
 Symmetry A2   KE= 0.000000000000D+00
 Symmetry B1   KE=-3.487845865525D-01
 Symmetry B2   KE=-9.483429399177D-01
 1|1|UNPC-DESKTOP-KC5UJLK|FOpt|RPM6|ZDO|H2O1|23122|13-Mar-2022|0||# opt
  freq pm6||opt freq(GC)||0,1|O,-1.3471681384,0.1157646302,0.|H,-0.3982
 029225,0.1324266938,0.|H,-1.6482328884,1.015860526,0.||Version=IA32W-G
 09RevD.01|State=1-A1|HF=-0.0864067|RMSD=1.374e-011|RMSF=3.081e-005|Dip
 ole=0.4697876,0.6647341,0.|PG=C02V [C2(O1),SGV(H2)]||@


 HE WHO LAUGHS LAST PROBABLY DIDN'T GET THE JOKE.
 Job cpu time:       0 days  0 hours  0 minutes 13.0 seconds.
 File lengths (MBytes):  RWF=      5 Int=      0 D2E=      0 Chk=      1 Scr=      1
 Normal termination of Gaussian 09 at Sun Mar 13 10:38:19 2022.
 Link1:  Proceeding to internal job step number  2.
 -------------------------------------------------------------
 #N Geom=AllCheck Guess=TCheck SCRF=Check GenChk RPM6/ZDO Freq
 -------------------------------------------------------------
 1/10=4,29=7,30=1,38=1,40=1/1,3;
 2/12=2,40=1/2;
 3/5=2,14=-4,16=1,25=1,41=3900000,70=2,71=2,116=1,135=40,140=1/1,2,3;
 4/5=101,35=1/1;
 5/5=2,35=1,98=1/2;
 8/6=4,10=90,11=11/1;
 11/6=1,8=1,9=11,15=111,16=1/1,2,10;
 10/6=1/2;
 6/7=2,8=2,9=2,10=2,18=1,28=1/1;
 7/8=1,10=1,25=1/1,2,3,16;
 1/10=4,30=1/3;
 99//99;
 Structure from the checkpoint file:  "C:\G09W\gxx.chk"
 ------------
 opt freq(GC)
 ------------
 Charge =  0 Multiplicity = 1
 Redundant internal coordinates found in file.
 O,0,-1.3471681384,0.1157646302,0.
 H,0,-0.3982029225,0.1324266938,0.
 H,0,-1.6482328884,1.015860526,0.
 Recover connectivity data from disk.

 GradGradGradGradGradGradGradGradGradGradGradGradGradGradGradGradGradGrad
 Berny optimization.
 Initialization pass.
                           ----------------------------
                           !    Initial Parameters    !
                           ! (Angstroms and Degrees)  !
 --------------------------                            --------------------------
 ! Name  Definition              Value          Derivative Info.                !
 --------------------------------------------------------------------------------
 ! R1    R(1,2)                  0.9491         calculate D2E/DX2 analytically  !
 ! R2    R(1,3)                  0.9491         calculate D2E/DX2 analytically  !
 ! A1    A(2,1,3)              107.4882         calculate D2E/DX2 analytically  !
 --------------------------------------------------------------------------------
 Trust Radius=3.00D-01 FncErr=1.00D-07 GrdErr=1.00D-07
 Number of steps in this run=      2 maximum allowed number of steps=      2.
 GradGradGradGradGradGradGradGradGradGradGradGradGradGradGradGradGradGrad

                          Input orientation:                          
 ---------------------------------------------------------------------
 Center     Atomic      Atomic             Coordinates (Angstroms)
 Number     Number       Type             X           Y           Z
 ---------------------------------------------------------------------
      1          8           0       -1.347168    0.115765    0.000000
      2          1           0       -0.398203    0.132427    0.000000
      3          1           0       -1.648233    1.015861    0.000000
 ---------------------------------------------------------------------
                    Distance matrix (angstroms):
                    1          2          3
     1  O    0.000000
     2  H    0.949111   0.000000
     3  H    0.949111   1.530696   0.000000
 Stoichiometry    H2O
 Framework group  C2V[C2(O),SGV(H2)]
 Deg. of freedom     2
 Full point group                 C2V     NOp   4
 Largest Abelian subgroup         C2V     NOp   4
 Largest concise Abelian subgroup C2      NOp   2
                         Standard orientation:                         
 ---------------------------------------------------------------------
 Center     Atomic      Atomic             Coordinates (Angstroms)
 Number     Number       Type             X           Y           Z
 ---------------------------------------------------------------------
      1          8           0        0.000000    0.000000    0.112260
      2          1           0        0.000000    0.765348   -0.449038
      3          1           0        0.000000   -0.765348   -0.449038
 ---------------------------------------------------------------------
 Rotational constants (GHZ):    896.1093852    428.0398001    289.6731625
 Standard basis: VSTO-6G (5D, 7F)
 There are     3 symmetry adapted cartesian basis functions of A1  symmetry.
 There are     0 symmetry adapted cartesian basis functions of A2  symmetry.
 There are     1 symmetry adapted cartesian basis functions of B1  symmetry.
 There are     2 symmetry adapted cartesian basis functions of B2  symmetry.
 There are     3 symmetry adapted basis functions of A1  symmetry.
 There are     0 symmetry adapted basis functions of A2  symmetry.
 There are     1 symmetry adapted basis functions of B1  symmetry.
 There are     2 symmetry adapted basis functions of B2  symmetry.
     6 basis functions,    36 primitive gaussians,     6 cartesian basis functions
     4 alpha electrons        4 beta electrons
       nuclear repulsion energy        16.7586896816 Hartrees.
 Integral buffers will be    262144 words long.
 Regular integral format.
 Two-electron integral symmetry is turned off.
 Do NDO integrals.
 One-electron integrals computed using PRISM.
 NBasis=     6 RedAO= T EigKep=  1.00D+00  NBF=     3     0     1     2
 NBsUse=     6 1.00D-06 EigRej= -1.00D+00 NBFU=     3     0     1     2
 Initial guess from the checkpoint file:  "C:\G09W\gxx.chk"
 B after Tr=     0.000000    0.000000    0.000000
         Rot=    1.000000    0.000000    0.000000    0.000000 Ang=   0.00 deg.
 Initial guess orbital symmetries:
       Occupied  (A1) (B2) (A1) (B1)
       Virtual   (A1) (B2)
 Overlap will be assumed to be unity.
 Keep J ints in memory in canonical form, NReq=877681.
 Requested convergence on RMS density matrix=1.00D-08 within 128 cycles.
 Requested convergence on MAX density matrix=1.00D-06.
 Requested convergence on             energy=1.00D-06.
 No special actions if energy rises.
 SCF Done:  E(RPM6) = -0.864066590404E-01 A.U. after    2 cycles
            NFock=  1  Conv=0.20D-13     -V/T= 0.9765
 Range of M.O.s used for correlation:     1     6
 NBasis=     6 NAE=     4 NBE=     4 NFC=     0 NFV=     0
 NROrb=      6 NOA=     4 NOB=     4 NVA=     2 NVB=     2
 Symmetrizing basis deriv contribution to polar:
 IMax=3 JMax=2 DiffMx= 0.00D+00
 G2DrvN: will do     4 centers at a time, making    1 passes.
 Calling FoFCou, ICntrl=  3107 FMM=F I1Cent=   0 AccDes= 0.00D+00.
 End of G2Drv F.D. properties file   721 does not exist.
 End of G2Drv F.D. properties file   722 does not exist.
 End of G2Drv F.D. properties file   788 does not exist.
          IDoAtm=111
          Differentiating once with respect to electric field.
                with respect to dipole field.
          Differentiating once with respect to nuclear coordinates.
          Electric field/nuclear overlap derivatives assumed to be zero.
 Keep J ints in memory in canonical form, NReq=859212.
          There are     9 degrees of freedom in the 1st order CPHF.  IDoFFX=4 NUNeed=     9.
 LinEq1:  Iter=  0 NonCon=     9 RMS=3.51D-01 Max=7.22D-01 NDo=     9
 AX will form     9 AO Fock derivatives at one time.
 LinEq1:  Iter=  1 NonCon=     7 RMS=3.77D-02 Max=7.52D-02 NDo=     9
 LinEq1:  Iter=  2 NonCon=     6 RMS=3.34D-03 Max=5.98D-03 NDo=     9
 LinEq1:  Iter=  3 NonCon=     2 RMS=4.14D-05 Max=7.67D-05 NDo=     9
 LinEq1:  Iter=  4 NonCon=     2 RMS=2.57D-06 Max=4.53D-06 NDo=     9
 LinEq1:  Iter=  5 NonCon=     2 RMS=6.25D-08 Max=1.07D-07 NDo=     9
 LinEq1:  Iter=  6 NonCon=     0 RMS=4.54D-21 Max=1.09D-20 NDo=     9
 Linear equations converged to 1.000D-08 1.000D-07 after     6 iterations.
 Isotropic polarizability for W=    0.000000        2.58 Bohr**3.
 End of Minotr F.D. properties file   721 does not exist.
 End of Minotr F.D. properties file   722 does not exist.
 End of Minotr F.D. properties file   788 does not exist.

 **********************************************************************

            Population analysis using the SCF density.

 **********************************************************************

 Orbital symmetries:
       Occupied  (A1) (B2) (A1) (B1)
       Virtual   (A1) (B2)
 The electronic state is 1-A1.
 Alpha  occ. eigenvalues --   -1.11721  -0.69747  -0.51868  -0.43743
 Alpha virt. eigenvalues --    0.14940   0.22185
          Condensed to atoms (all electrons):
               1          2          3
     1  O    6.618408   0.000000   0.000000
     2  H    0.000000   0.690796   0.000000
     3  H    0.000000   0.000000   0.690796
 Mulliken charges:
               1
     1  O   -0.618408
     2  H    0.309204
     3  H    0.309204
 Sum of Mulliken charges =   0.00000
 Mulliken charges with hydrogens summed into heavy atoms:
               1
     1  O    0.000000
 APT charges:
               1
     1  O   -0.675179
     2  H    0.337590
     3  H    0.337590
 Sum of APT charges =   0.00000
 APT charges with hydrogens summed into heavy atoms:
               1
     1  O    0.000000
 Charge=              0.0000 electrons
 Dipole moment (field-independent basis, Debye):
    X=              0.0000    Y=              0.0000    Z=             -2.0689  Tot=              2.0689
 N-N= 1.675868968160D+01 E-N=-2.447538215867D+01  KE=-3.673220201653D+00
 Symmetry A1   KE=-2.376092675183D+00
 Symmetry A2   KE= 0.000000000000D+00
 Symmetry B1   KE=-3.487845865525D-01
 Symmetry B2   KE=-9.483429399177D-01
  Exact polarizability:   0.084   0.000   4.848   0.000   0.000   2.798
 Approx polarizability:   0.046   0.000   3.445   0.000   0.000   1.783
 Calling FoFJK, ICntrl=    100127 FMM=F ISym2X=1 I1Cent= 0 IOpClX= 0 NMat=1 NMatS=1 NMatT=0.
 Full mass-weighted force constant matrix:
 Low frequencies ---  -29.6917  -19.2313    0.0000    0.0000    0.0000   26.4913
 Low frequencies --- 1337.2080 2528.9028 2615.8720
 Diagonal vibrational polarizability:
        0.0000000       1.1093456       1.3602468
 Harmonic frequencies (cm**-1), IR intensities (KM/Mole), Raman scattering
 activities (A**4/AMU), depolarization ratios for plane and unpolarized
 incident light, reduced masses (AMU), force constants (mDyne/A),
 and normal coordinates:
                      1                      2                      3
                     A1                     B2                     A1
 Frequencies --   1337.2080              2528.9028              2615.8720
 Red. masses --      1.1158                 1.0848                 1.0160
 Frc consts  --      1.1756                 4.0876                 4.0963
 IR Inten    --     83.2741               263.6319                27.2010
  Atom  AN      X      Y      Z        X      Y      Z        X      Y      Z
     1   8     0.00   0.00   0.08     0.00   0.07   0.00     0.00   0.00   0.02
     2   1     0.00  -0.21  -0.67     0.00  -0.57   0.42     0.00   0.68  -0.19
     3   1     0.00   0.21  -0.67     0.00  -0.57  -0.42     0.00  -0.68  -0.19

 -------------------
 - Thermochemistry -
 -------------------
 Temperature   298.150 Kelvin.  Pressure   1.00000 Atm.
 Atom     1 has atomic number  8 and mass  15.99491
 Atom     2 has atomic number  1 and mass   1.00783
 Atom     3 has atomic number  1 and mass   1.00783
 Molecular mass:    18.01056 amu.
 Principal axes and moments of inertia in atomic units:
                           1         2         3
     Eigenvalues --     2.01397   4.21629   6.23027
           X            0.00000   0.00000   1.00000
           Y            1.00000   0.00000   0.00000
           Z            0.00000   1.00000   0.00000
 This molecule is an asymmetric top.
 Rotational symmetry number  2.
 Rotational temperatures (Kelvin)     43.00642    20.54265    13.90210
 Rotational constants (GHZ):         896.10939   428.03980   289.67316
 Zero-point vibrational energy      38770.9 (Joules/Mol)
                                    9.26646 (Kcal/Mol)
 Vibrational temperatures:   1923.94  3638.52  3763.65
          (Kelvin)
 
 Zero-point correction=                           0.014767 (Hartree/Particle)
 Thermal correction to Energy=                    0.017609
 Thermal correction to Enthalpy=                  0.018554
 Thermal correction to Gibbs Free Energy=        -0.002828
 Sum of electronic and zero-point Energies=             -0.071640
 Sum of electronic and thermal Energies=                -0.068797
 Sum of electronic and thermal Enthalpies=              -0.067853
 Sum of electronic and thermal Free Energies=           -0.089234
 
                     E (Thermal)             CV                S
                      KCal/Mol        Cal/Mol-Kelvin    Cal/Mol-Kelvin
 Total                   11.050              6.095             45.000
 Electronic               0.000              0.000              0.000
 Translational            0.889              2.981             34.608
 Rotational               0.889              2.981             10.369
 Vibrational              9.273              0.133              0.024
                       Q            Log10(Q)             Ln(Q)
 Total Bot       0.199822D+02          1.300643          2.994841
 Total V=0       0.123879D+09          8.092997         18.634814
 Vib (Bot)       0.161560D-06         -6.791665        -15.638387
 Vib (V=0)       0.100159D+01          0.000689          0.001585
 Electronic      0.100000D+01          0.000000          0.000000
 Translational   0.300432D+07          6.477746         14.915562
 Rotational      0.411682D+02          1.614562          3.717667
 ***** Axes restored to original set *****
 -------------------------------------------------------------------
 Center     Atomic                   Forces (Hartrees/Bohr)
 Number     Number              X              Y              Z
 -------------------------------------------------------------------
      1        8           0.000029103    0.000041180    0.000000000
      2        1           0.000025162   -0.000048657    0.000000000
      3        1          -0.000054265    0.000007476    0.000000000
 -------------------------------------------------------------------
 Cartesian Forces:  Max     0.000054265 RMS     0.000030811
 FormGI is forming the generalized inverse of G from B-inverse, IUseBI=4.

 GradGradGradGradGradGradGradGradGradGradGradGradGradGradGradGradGradGrad
 Berny optimization.
 Internal  Forces:  Max     0.000088048 RMS     0.000054570
 Search for a local minimum.
 Step number   1 out of a maximum of    2
 All quantities printed in internal units (Hartrees-Bohrs-Radians)
 Second derivative matrix not updated -- analytic derivatives used.
 The second derivative matrix:
                          R1        R2        A1
           R1           0.22875
           R2           0.00331   0.22875
           A1           0.06063   0.06063   0.14130
 ITU=  0
     Eigenvalues ---    0.08966   0.22544   0.28369
 Angle between quadratic step and forces=  30.08 degrees.
 Linear search not attempted -- first point.
 Iteration  1 RMS(Cart)=  0.00035611 RMS(Int)=  0.00000009
 Iteration  2 RMS(Cart)=  0.00000008 RMS(Int)=  0.00000000
 ClnCor:  largest displacement from symmetrization is 8.88D-16 for atom     3.
 Variable       Old X    -DE/DX   Delta X   Delta X   Delta X     New X
                                 (Linear)    (Quad)   (Total)
    R1        1.79356   0.00002   0.00000  -0.00007  -0.00007   1.79349
    R2        1.79356   0.00002   0.00000  -0.00007  -0.00007   1.79349
    A1        1.87602   0.00009   0.00000   0.00069   0.00069   1.87671
         Item               Value     Threshold  Converged?
 Maximum Force            0.000088     0.000450     YES
 RMS     Force            0.000055     0.000300     YES
 Maximum Displacement     0.000352     0.001800     YES
 RMS     Displacement     0.000356     0.001200     YES
 Predicted change in Energy=-2.844266D-08
 Optimization completed.
    -- Stationary point found.
                           ----------------------------
                           !   Optimized Parameters   !
                           ! (Angstroms and Degrees)  !
 --------------------------                            --------------------------
 ! Name  Definition              Value          Derivative Info.                !
 --------------------------------------------------------------------------------
 ! R1    R(1,2)                  0.9491         -DE/DX =    0.0                 !
 ! R2    R(1,3)                  0.9491         -DE/DX =    0.0                 !
 ! A1    A(2,1,3)              107.4882         -DE/DX =    0.0001              !
 --------------------------------------------------------------------------------
 GradGradGradGradGradGradGradGradGradGradGradGradGradGradGradGradGradGrad

 1|1|UNPC-DESKTOP-KC5UJLK|Freq|RPM6|ZDO|H2O1|23122|13-Mar-2022|0||#N Ge
 om=AllCheck Guess=TCheck SCRF=Check GenChk RPM6/ZDO Freq||opt freq(GC)
 ||0,1|O,-1.3471681384,0.1157646302,0.|H,-0.3982029225,0.1324266938,0.|
 H,-1.6482328884,1.015860526,0.||Version=IA32W-G09RevD.01|State=1-A1|HF
 =-0.0864067|RMSD=2.031e-014|RMSF=3.081e-005|ZeroPoint=0.014767|Thermal
 =0.0176093|Dipole=0.4697876,0.6647341,0.|DipoleDeriv=-0.692945,0.18038
 69,0.,0.1803869,-0.5651882,0.,0.,0.,-0.7674046,0.3821836,-0.0591075,0.
 ,-0.0959875,0.246883,0.,0.,0.,0.3837023,0.3107614,-0.1212794,0.,-0.084
 3994,0.3183052,0.,0.,0.,0.3837023|Polar=4.165518,-0.9661157,3.481279,0
 .,0.,0.0843627|HyperPolar=13.451485,2.3162719,-2.6424007,12.9782288,0.
 ,0.,0.,0.0622909,0.0881396,0.|PG=C02V [C2(O1),SGV(H2)]|NImag=0||0.2446
 9287,-0.06867719,0.19605313,0.,0.,0.00004754,-0.19585220,0.03783838,0.
 ,0.22987622,-0.02122070,-0.02452080,0.,-0.03056904,0.04277932,0.,0.,-0
 .00002377,0.,0.,-0.00000493,-0.04884067,0.03083881,0.,-0.03402402,0.05
 178975,0.,0.08286469,0.08989789,-0.17153233,0.,-0.00726934,-0.01825852
 ,0.,-0.08262855,0.18979084,0.,0.,-0.00002377,0.,0.,0.00002870,0.,0.,-0
 .00000493||-0.00002910,-0.00004118,0.,-0.00002516,0.00004866,0.,0.0000
 5427,-0.00000748,0.|||@


 HE WHO LAUGHS LAST PROBABLY DIDN'T GET THE JOKE.
 Job cpu time:       0 days  0 hours  0 minutes  5.0 seconds.
 File lengths (MBytes):  RWF=      5 Int=      0 D2E=      0 Chk=      1 Scr=      1
 Normal termination of Gaussian 09 at Sun Mar 13 10:38:24 2022.
