 Entering Link 1 = C:\G09W\l1.exe PID=      2656.
  
 Copyright (c) 1988,1990,1992,1993,1995,1998,2003,2009,2013,
            Gaussian, Inc.  All Rights Reserved.
  
 This is part of the Gaussian(R) 09 program.  It is based on
 the Gaussian(R) 03 system (copyright 2003, Gaussian, Inc.),
 the Gaussian(R) 98 system (copyright 1998, Gaussian, Inc.),
 the Gaussian(R) 94 system (copyright 1995, Gaussian, Inc.),
 the Gaussian 92(TM) system (copyright 1992, Gaussian, Inc.),
 the Gaussian 90(TM) system (copyright 1990, Gaussian, Inc.),
 the Gaussian 88(TM) system (copyright 1988, Gaussian, Inc.),
 the Gaussian 86(TM) system (copyright 1986, Carnegie Mellon
 University), and the Gaussian 82(TM) system (copyright 1983,
 Carnegie Mellon University). Gaussian is a federally registered
 trademark of Gaussian, Inc.
  
 This software contains proprietary and confidential information,
 including trade secrets, belonging to Gaussian, Inc.
  
 This software is provided under written license and may be
 used, copied, transmitted, or stored only in accord with that
 written license.
  
 The following legend is applicable only to US Government
 contracts under FAR:
  
                    RESTRICTED RIGHTS LEGEND
  
 Use, reproduction and disclosure by the US Government is
 subject to restrictions as set forth in subparagraphs (a)
 and (c) of the Commercial Computer Software - Restricted
 Rights clause in FAR 52.227-19.
  
 Gaussian, Inc.
 340 Quinnipiac St., Bldg. 40, Wallingford CT 06492
  
  
 ---------------------------------------------------------------
 Warning -- This program may not be used in any manner that
 competes with the business of Gaussian, Inc. or will provide
 assistance to any competitor of Gaussian, Inc.  The licensee
 of this program is prohibited from giving any competitor of
 Gaussian, Inc. access to this program.  By using this program,
 the user acknowledges that Gaussian, Inc. is engaged in the
 business of creating and licensing software in the field of
 computational chemistry and represents and warrants to the
 licensee that it is not a competitor of Gaussian, Inc. and that
 it will not use this program in any manner prohibited above.
 ---------------------------------------------------------------
  

 Cite this work as:
 Gaussian 09, Revision D.01,
 M. J. Frisch, G. W. Trucks, H. B. Schlegel, G. E. Scuseria, 
 M. A. Robb, J. R. Cheeseman, G. Scalmani, V. Barone, B. Mennucci, 
 G. A. Petersson, H. Nakatsuji, M. Caricato, X. Li, H. P. Hratchian, 
 A. F. Izmaylov, J. Bloino, G. Zheng, J. L. Sonnenberg, M. Hada, 
 M. Ehara, K. Toyota, R. Fukuda, J. Hasegawa, M. Ishida, T. Nakajima, 
 Y. Honda, O. Kitao, H. Nakai, T. Vreven, J. A. Montgomery, Jr., 
 J. E. Peralta, F. Ogliaro, M. Bearpark, J. J. Heyd, E. Brothers, 
 K. N. Kudin, V. N. Staroverov, T. Keith, R. Kobayashi, J. Normand, 
 K. Raghavachari, A. Rendell, J. C. Burant, S. S. Iyengar, J. Tomasi, 
 M. Cossi, N. Rega, J. M. Millam, M. Klene, J. E. Knox, J. B. Cross, 
 V. Bakken, C. Adamo, J. Jaramillo, R. Gomperts, R. E. Stratmann, 
 O. Yazyev, A. J. Austin, R. Cammi, C. Pomelli, J. W. Ochterski, 
 R. L. Martin, K. Morokuma, V. G. Zakrzewski, G. A. Voth, 
 P. Salvador, J. J. Dannenberg, S. Dapprich, A. D. Daniels, 
 O. Farkas, J. B. Foresman, J. V. Ortiz, J. Cioslowski, 
 and D. J. Fox, Gaussian, Inc., Wallingford CT, 2013.
 
 ******************************************
 Gaussian 09:  IA32W-G09RevD.01 24-Apr-2013
                05-Feb-2022 
 ******************************************
 %chk=D:\mindmap\gaussian\calculate\ch3n2_gongzhen _dihedral_175\energy.chk
 %nprocshared=4
 Will use up to    4 processors via shared memory.
 %mem=1GB
 -------------------------------------------------------------
 # apfd/6-311+g(2d,p) pop=full geom=connectivity int=ultrafine
 -------------------------------------------------------------
 1/38=1,57=2/1;
 2/12=2,17=6,18=5,40=1/2;
 3/5=4,6=6,7=112,11=2,16=1,25=1,30=1,74=-44,75=-5/1,2,3;
 4//1;
 5/5=2,38=5/2;
 6/7=3,28=1/1;
 99/5=1,9=1/99;
 ----------------------
 Energy Calculation(GC)
 ----------------------
 Symbolic Z-matrix:
 Charge =  0 Multiplicity = 1
 N                     0.12586  -0.06685  -0.00508 
 N                     1.3401   -0.10983  -0.0099 
 C                    -1.152    -0.02162   0. 
 H                    -1.68233   0.06303  -0.92553 
 H                    -1.6891    0.01309   0.92484 
 
                          Input orientation:                          
 ---------------------------------------------------------------------
 Center     Atomic      Atomic             Coordinates (Angstroms)
 Number     Number       Type             X           Y           Z
 ---------------------------------------------------------------------
      1          7           0        0.125856   -0.066851   -0.005078
      2          7           0        1.340099   -0.109826   -0.009904
      3          6           0       -1.151997   -0.021619    0.000000
      4          1           0       -1.682332    0.063027   -0.925526
      5          1           0       -1.689104    0.013093    0.924840
 ---------------------------------------------------------------------
                    Distance matrix (angstroms):
                    1          2          3          4          5
     1  N    0.000000
     2  N    1.215013   0.000000
     3  C    1.278663   2.493676   0.000000
     4  H    2.033134   3.162804   1.070055   0.000000
     5  H    2.040887   3.172527   1.070055   1.851052   0.000000
 Stoichiometry    CH2N2
 Framework group  C1[X(CH2N2)]
 Deg. of freedom     9
 Full point group                 C1      NOp   1
 Largest Abelian subgroup         C1      NOp   1
 Largest concise Abelian subgroup C1      NOp   1
                         Standard orientation:                         
 ---------------------------------------------------------------------
 Center     Atomic      Atomic             Coordinates (Angstroms)
 Number     Number       Type             X           Y           Z
 ---------------------------------------------------------------------
      1          7           0        0.127072   -0.000322   -0.003039
      2          7           0        1.342068   -0.000290    0.003289
      3          6           0       -1.151574   -0.000356   -0.009692
      4          1           0       -1.681119    0.928715    0.028091
      5          1           0       -1.693423   -0.922296    0.028309
 ---------------------------------------------------------------------
 Rotational constants (GHZ):    292.2486295     10.7906225     10.4075590
 Standard basis: 6-311+G(2d,p) (5D, 7F)
 There are    99 symmetry adapted cartesian basis functions of A   symmetry.
 There are    93 symmetry adapted basis functions of A   symmetry.
    93 basis functions,   142 primitive gaussians,    99 cartesian basis functions
    11 alpha electrons       11 beta electrons
       nuclear repulsion energy        59.8315967319 Hartrees.
 NAtoms=    5 NActive=    5 NUniq=    5 SFac= 1.00D+00 NAtFMM=   60 NAOKFM=F Big=F
 Integral buffers will be    262144 words long.
 Raffenetti 2 integral format.
 Two-electron integral symmetry is turned on.
 R6APFD:  NTU= -4 IXU= 1 FactS= 1.050
 Nuclear repulsion after empirical dispersion term =       59.8313648230 Hartrees.
 One-electron integrals computed using PRISM.
 NBasis=    93 RedAO= T EigKep=  8.98D-05  NBF=    93
 NBsUse=    93 1.00D-06 EigRej= -1.00D+00 NBFU=    93
 ExpMin= 4.38D-02 ExpMax= 6.29D+03 ExpMxC= 9.49D+02 IAcc=3 IRadAn=         5 AccDes= 0.00D+00
 Harris functional with IExCor= 3731 and IRadAn=       5 diagonalized for initial guess.
 HarFok:  IExCor= 3731 AccDes= 0.00D+00 IRadAn=         5 IDoV= 1 UseB2=F ITyADJ=14
 ICtDFT=  3500011 ScaDFX=  1.000000  1.000000  1.000000  1.000000
 FoFCou: FMM=F IPFlag=           0 FMFlag=      100000 FMFlg1=           0
         NFxFlg=           0 DoJE=T BraDBF=F KetDBF=T FulRan=T
         wScrn=  0.000000 ICntrl=     500 IOpCl=  0 I1Cent=   200000004 NGrid=           0
         NMat0=    1 NMatS0=      1 NMatT0=    0 NMatD0=    1 NMtDS0=    0 NMtDT0=    0
 Petite list used in FoFCou.
 Keep R1 ints in memory in canonical form, NReq=10520328.
 Requested convergence on RMS density matrix=1.00D-08 within 128 cycles.
 Requested convergence on MAX density matrix=1.00D-06.
 Requested convergence on             energy=1.00D-06.
 No special actions if energy rises.
 SCF Done:  E(RAPFD) =  -148.646056880     A.U. after   12 cycles
            NFock= 12  Conv=0.32D-08     -V/T= 2.0054

 **********************************************************************

            Population analysis using the SCF density.

 **********************************************************************

 Orbital symmetries:
       Occupied  (A) (A) (A) (A) (A) (A) (A) (A) (A) (A) (A)
       Virtual   (A) (A) (A) (A) (A) (A) (A) (A) (A) (A) (A) (A)
                 (A) (A) (A) (A) (A) (A) (A) (A) (A) (A) (A) (A)
                 (A) (A) (A) (A) (A) (A) (A) (A) (A) (A) (A) (A)
                 (A) (A) (A) (A) (A) (A) (A) (A) (A) (A) (A) (A)
                 (A) (A) (A) (A) (A) (A) (A) (A) (A) (A) (A) (A)
                 (A) (A) (A) (A) (A) (A) (A) (A) (A) (A) (A) (A)
                 (A) (A) (A) (A) (A) (A) (A) (A) (A) (A)
 The electronic state is 1-A.
 Alpha  occ. eigenvalues --  -14.49793 -14.43113 -10.24370  -1.08971  -0.86940
 Alpha  occ. eigenvalues --   -0.59088  -0.52821  -0.47420  -0.46265  -0.39507
 Alpha  occ. eigenvalues --   -0.24349
 Alpha virt. eigenvalues --   -0.07332  -0.00886   0.01141   0.05036   0.05067
 Alpha virt. eigenvalues --    0.08069   0.10834   0.13835   0.14477   0.14887
 Alpha virt. eigenvalues --    0.18856   0.21487   0.22142   0.22436   0.23377
 Alpha virt. eigenvalues --    0.25646   0.29853   0.38263   0.51064   0.51204
 Alpha virt. eigenvalues --    0.54846   0.56034   0.64409   0.66919   0.75913
 Alpha virt. eigenvalues --    0.76463   0.77220   0.77992   0.79652   0.86254
 Alpha virt. eigenvalues --    0.86693   0.87096   0.87529   0.96601   0.98811
 Alpha virt. eigenvalues --    1.00563   1.14258   1.23568   1.25397   1.26717
 Alpha virt. eigenvalues --    1.29419   1.35974   1.39999   1.68388   1.68897
 Alpha virt. eigenvalues --    1.80128   1.89337   1.94255   2.09180   2.11577
 Alpha virt. eigenvalues --    2.34033   2.35343   2.57041   2.64971   2.81286
 Alpha virt. eigenvalues --    2.86479   3.21040   3.25685   3.39319   3.43787
 Alpha virt. eigenvalues --    3.55267   3.81275   3.84711   3.96800   3.97295
 Alpha virt. eigenvalues --    3.97403   4.12230   4.41714   4.65893   4.66253
 Alpha virt. eigenvalues --    4.69049   4.79220   4.81042   4.85594   4.92202
 Alpha virt. eigenvalues --    5.13050   5.23717   5.27864   5.87771  24.23712
 Alpha virt. eigenvalues --   35.42046  35.81743
     Molecular Orbital Coefficients:
                           1         2         3         4         5
                           O         O         O         O         O
     Eigenvalues --   -14.49793 -14.43113 -10.24370  -1.08971  -0.86940
   1 1   N  1S          0.55761  -0.00285  -0.00010  -0.10146  -0.03515
   2        2S          0.46574  -0.00232  -0.00007  -0.16070  -0.05636
   3        2PX         0.00002   0.00045  -0.00052   0.04934  -0.17709
   4        2PY         0.00000   0.00000   0.00000   0.00002   0.00005
   5        2PZ        -0.00002   0.00000   0.00000   0.00024  -0.00067
   6        3S          0.01438   0.00180   0.00299   0.44577   0.16008
   7        3PX         0.00038  -0.00122   0.00143   0.06939  -0.25545
   8        3PY         0.00000   0.00000  -0.00001   0.00002   0.00006
   9        3PZ         0.00001  -0.00001   0.00001   0.00026  -0.00100
  10        4S          0.00479  -0.01060  -0.02060   0.22577   0.12922
  11        4PX         0.00577   0.00963   0.01049  -0.01001  -0.05509
  12        4PY        -0.00001   0.00000  -0.00003   0.00003   0.00005
  13        4PZ         0.00001   0.00004   0.00005   0.00001  -0.00015
  14        5S          0.01690   0.00070   0.01219  -0.14284  -0.13872
  15        5PX         0.00759   0.00361   0.00161  -0.04080  -0.01707
  16        5PY        -0.00001  -0.00001  -0.00001   0.00007   0.00008
  17        5PZ         0.00004   0.00002   0.00000  -0.00019  -0.00014
  18        6D 0       -0.00034  -0.00014  -0.00030  -0.00783  -0.00092
  19        6D+1        0.00000   0.00000   0.00000   0.00013   0.00001
  20        6D-1        0.00000   0.00000   0.00000   0.00000   0.00000
  21        6D+2        0.00043   0.00022   0.00033   0.01311   0.00147
  22        6D-2        0.00000   0.00000   0.00000   0.00000  -0.00001
  23        7D 0       -0.00123   0.00267   0.00403  -0.01065  -0.00068
  24        7D+1        0.00004  -0.00004  -0.00005   0.00015   0.00003
  25        7D-1        0.00000   0.00000   0.00000   0.00000   0.00000
  26        7D+2        0.00271  -0.00452  -0.00591   0.01298   0.00046
  27        7D-2        0.00000   0.00000   0.00003   0.00003   0.00001
  28 2   N  1S          0.00278   0.55765   0.00001  -0.07217   0.06039
  29        2S          0.00249   0.46589  -0.00026  -0.11370   0.09606
  30        2PX        -0.00062  -0.00169   0.00012  -0.08369   0.04890
  31        2PY         0.00000   0.00000   0.00000   0.00000   0.00002
  32        2PZ         0.00000  -0.00001   0.00000  -0.00044   0.00028
  33        3S         -0.00030   0.01543   0.00309   0.31123  -0.27501
  34        3PX         0.00276  -0.00246  -0.00246  -0.12023   0.07107
  35        3PY         0.00000   0.00000  -0.00001   0.00000   0.00002
  36        3PZ         0.00001  -0.00001  -0.00001  -0.00064   0.00040
  37        4S         -0.01046  -0.01088  -0.00125   0.18639  -0.20132
  38        4PX         0.00543   0.00305   0.00060  -0.04898   0.03643
  39        4PY         0.00000   0.00000   0.00001  -0.00002   0.00000
  40        4PZ         0.00003   0.00002  -0.00001  -0.00026   0.00018
  41        5S         -0.01582   0.00029  -0.00750   0.08817   0.10667
  42        5PX         0.00309  -0.00114   0.00209  -0.01556  -0.03587
  43        5PY         0.00000   0.00000   0.00000  -0.00002  -0.00003
  44        5PZ         0.00002   0.00000   0.00003  -0.00013  -0.00021
  45        6D 0        0.00006  -0.00036  -0.00010  -0.00694   0.00406
  46        6D+1        0.00000   0.00001   0.00000   0.00012  -0.00008
  47        6D-1        0.00000   0.00000   0.00000   0.00000   0.00000
  48        6D+2       -0.00009   0.00057   0.00021   0.01084  -0.00609
  49        6D-2        0.00000   0.00000   0.00000   0.00000   0.00000
  50        7D 0        0.00110   0.00004  -0.00023  -0.01024   0.00397
  51        7D+1       -0.00002   0.00000   0.00001   0.00019  -0.00007
  52        7D-1        0.00000   0.00000   0.00000   0.00000   0.00000
  53        7D+2       -0.00205   0.00000   0.00015   0.01484  -0.00445
  54        7D-2        0.00000   0.00000   0.00000   0.00001   0.00001
  55 3   C  1S         -0.00001   0.00006   0.56322  -0.02960  -0.08187
  56        2S          0.00017  -0.00029   0.46289  -0.04540  -0.12730
  57        2PX         0.00045  -0.00018   0.00079   0.03840   0.07369
  58        2PY         0.00000   0.00000  -0.00001   0.00004   0.00017
  59        2PZ        -0.00001   0.00000   0.00003   0.00041   0.00152
  60        3S         -0.00092   0.00354   0.02236   0.10738   0.33278
  61        3PX        -0.00327   0.00407   0.00481   0.04961   0.10330
  62        3PY         0.00000   0.00000   0.00002   0.00005   0.00019
  63        3PZ         0.00005   0.00002   0.00021   0.00046   0.00207
  64        4S          0.00353   0.01200   0.01017   0.01831   0.16959
  65        4PX        -0.00026   0.00456   0.00470   0.00551   0.02739
  66        4PY         0.00003   0.00001   0.00005  -0.00013  -0.00007
  67        4PZ         0.00004   0.00004   0.00010   0.00000   0.00071
  68        5S         -0.00149  -0.00100  -0.00436   0.03456   0.02135
  69        5PX        -0.00100  -0.00131  -0.00123   0.01732   0.00282
  70        5PY         0.00000   0.00000   0.00001  -0.00002  -0.00003
  71        5PZ        -0.00003  -0.00002  -0.00006   0.00023   0.00019
  72        6D 0        0.00024  -0.00012  -0.00121  -0.00491  -0.01050
  73        6D+1       -0.00001   0.00001  -0.00002   0.00007   0.00007
  74        6D-1        0.00000   0.00000   0.00000   0.00000   0.00000
  75        6D+2       -0.00056   0.00036   0.00067   0.00674   0.01154
  76        6D-2        0.00000   0.00000   0.00000   0.00000   0.00002
  77        7D 0        0.00001  -0.00057  -0.00244  -0.00288  -0.00713
  78        7D+1       -0.00003   0.00001  -0.00005   0.00023   0.00031
  79        7D-1        0.00000   0.00000   0.00000   0.00000   0.00000
  80        7D+2       -0.00217   0.00062  -0.00005   0.00960   0.00902
  81        7D-2        0.00000  -0.00001   0.00006   0.00006   0.00009
  82 4   H  1S         -0.00009   0.00003   0.00025   0.00906   0.03970
  83        2S         -0.00200  -0.00027  -0.00498   0.01385   0.04648
  84        3S          0.00094   0.00036   0.00201  -0.00502  -0.00446
  85        4PX        -0.00051  -0.00003  -0.00128   0.00245   0.00579
  86        4PY         0.00033  -0.00019   0.00160  -0.00164  -0.00711
  87        4PZ         0.00003   0.00000   0.00008  -0.00007  -0.00019
  88 5   H  1S         -0.00009   0.00003   0.00025   0.00892   0.03935
  89        2S         -0.00197  -0.00026  -0.00500   0.01356   0.04595
  90        3S          0.00096   0.00037   0.00208  -0.00508  -0.00457
  91        4PX        -0.00053  -0.00003  -0.00129   0.00250   0.00582
  92        4PY        -0.00032   0.00020  -0.00159   0.00156   0.00696
  93        4PZ         0.00003   0.00000   0.00009  -0.00007  -0.00019
                           6         7         8         9        10
                           O         O         O         O         O
     Eigenvalues --    -0.59088  -0.52821  -0.47420  -0.46265  -0.39507
   1 1   N  1S          0.04393   0.00021  -0.00176   0.02682  -0.00013
   2        2S          0.07165   0.00034  -0.00288   0.04394  -0.00021
   3        2PX         0.06799   0.00013   0.00271  -0.13189  -0.00068
   4        2PY         0.00009   0.16244  -0.00001  -0.00067   0.15677
   5        2PZ         0.00347   0.00002   0.22396   0.00796   0.00001
   6        3S         -0.21699  -0.00105   0.00890  -0.13707   0.00069
   7        3PX         0.10035   0.00025   0.00403  -0.19866  -0.00107
   8        3PY         0.00016   0.25085   0.00000  -0.00105   0.24309
   9        3PZ         0.00548   0.00003   0.34928   0.01243   0.00002
  10        4S         -0.20562  -0.00135   0.01102  -0.17034   0.00039
  11        4PX         0.01499   0.00046   0.00141  -0.13588  -0.00027
  12        4PY         0.00015   0.15414   0.00000  -0.00075   0.18052
  13        4PZ         0.00314   0.00003   0.22790   0.00802   0.00001
  14        5S          0.19404   0.00370  -0.01634   0.12462   0.00131
  15        5PX         0.09435   0.00244  -0.01141   0.04470   0.00113
  16        5PY         0.00000  -0.00065  -0.00001  -0.00010   0.04299
  17        5PZ        -0.00045   0.00000  -0.00339   0.00057   0.00000
  18        6D 0        0.00113   0.00000  -0.00005   0.00076   0.00000
  19        6D+1       -0.00012   0.00000   0.00286   0.00016   0.00000
  20        6D-1        0.00000  -0.00004   0.00000   0.00000   0.00001
  21        6D+2       -0.00197  -0.00001   0.00006  -0.00124  -0.00001
  22        6D-2        0.00000  -0.00204   0.00000  -0.00001   0.01067
  23        7D 0       -0.00207   0.00000  -0.00002   0.00098   0.00008
  24        7D+1       -0.00070  -0.00001   0.00195   0.00046   0.00000
  25        7D-1        0.00000   0.00025   0.00001   0.00000   0.00009
  26        7D+2        0.00301  -0.00001  -0.00021   0.00167   0.00000
  27        7D-2       -0.00005  -0.00083  -0.00001  -0.00004   0.04203
  28 2   N  1S         -0.03506  -0.00020   0.00334  -0.07503  -0.00009
  29        2S         -0.05644  -0.00032   0.00541  -0.12142  -0.00014
  30        2PX         0.01814   0.00026  -0.00858   0.20069   0.00056
  31        2PY         0.00003   0.07826   0.00000  -0.00042   0.16157
  32        2PZ         0.00124   0.00001   0.14138   0.00687   0.00002
  33        3S          0.16510   0.00095  -0.01565   0.34990   0.00038
  34        3PX         0.02436   0.00036  -0.01226   0.28471   0.00079
  35        3PY         0.00005   0.12286   0.00000  -0.00065   0.24568
  36        3PZ         0.00204   0.00002   0.21855   0.01042   0.00003
  37        4S          0.18599   0.00089  -0.02088   0.51350   0.00072
  38        4PX         0.00292   0.00031  -0.00674   0.13855   0.00047
  39        4PY         0.00002   0.07835   0.00000  -0.00043   0.18563
  40        4PZ         0.00112   0.00001   0.14891   0.00694   0.00003
  41        5S         -0.21704  -0.00498   0.02097  -0.07468  -0.00186
  42        5PX         0.05883   0.00119  -0.00593   0.04785   0.00048
  43        5PY         0.00002   0.00064   0.00001   0.00000   0.00571
  44        5PZ         0.00059   0.00001   0.01168   0.00068   0.00001
  45        6D 0        0.00010   0.00001  -0.00037   0.00674   0.00002
  46        6D+1       -0.00014   0.00000  -0.01220  -0.00062   0.00000
  47        6D-1        0.00000  -0.00004   0.00000   0.00000  -0.00006
  48        6D+2       -0.00083  -0.00002   0.00057  -0.01317  -0.00003
  49        6D-2        0.00000  -0.00797   0.00000   0.00004  -0.01128
  50        7D 0        0.00089   0.00001  -0.00052   0.00485  -0.00001
  51        7D+1       -0.00052   0.00000  -0.03516  -0.00143   0.00000
  52        7D-1        0.00000  -0.00015   0.00000   0.00000  -0.00014
  53        7D+2       -0.00308  -0.00004   0.00079  -0.01333  -0.00001
  54        7D-2       -0.00002  -0.02290   0.00000   0.00010  -0.02727
  55 3   C  1S         -0.06400   0.00005   0.00187  -0.00336   0.00005
  56        2S         -0.10122   0.00007   0.00300  -0.00533   0.00008
  57        2PX        -0.15331   0.00014   0.00011   0.07380   0.00021
  58        2PY        -0.00015   0.16692   0.00000  -0.00005  -0.12740
  59        2PZ         0.00525   0.00001   0.09092   0.00233   0.00000
  60        3S          0.26131  -0.00032  -0.00815   0.01943  -0.00021
  61        3PX        -0.20701   0.00004   0.00021   0.09922   0.00027
  62        3PY        -0.00019   0.23295   0.00001  -0.00012  -0.16452
  63        3PZ         0.00709   0.00002   0.14483   0.00417   0.00001
  64        4S          0.24430   0.00143  -0.01147  -0.02626   0.00086
  65        4PX        -0.08952   0.00009  -0.00002   0.03663   0.00014
  66        4PY        -0.00014   0.10687   0.00003   0.00008  -0.13169
  67        4PZ         0.00347   0.00002   0.08861   0.00247   0.00002
  68        5S          0.02713   0.00052  -0.00279  -0.00443   0.00024
  69        5PX        -0.00530   0.00021  -0.00060   0.00089   0.00008
  70        5PY        -0.00006   0.01777   0.00000   0.00002  -0.01783
  71        5PZ         0.00074   0.00000   0.01198   0.00007   0.00000
  72        6D 0       -0.00170   0.00000   0.00026  -0.00163   0.00000
  73        6D+1       -0.00039   0.00000   0.01348   0.00070   0.00000
  74        6D-1        0.00000   0.00084   0.00000   0.00000  -0.00072
  75        6D+2       -0.01521  -0.00017  -0.00008   0.00662   0.00020
  76        6D-2        0.00014   0.00182   0.00000  -0.00007   0.01561
  77        7D 0        0.00021  -0.00025   0.00102  -0.00121  -0.00019
  78        7D+1       -0.00067  -0.00001   0.02465   0.00134   0.00000
  79        7D-1        0.00000   0.00031   0.00006   0.00000  -0.00085
  80        7D+2       -0.00619  -0.00001  -0.00018  -0.00138   0.00000
  81        7D-2       -0.00008   0.03698  -0.00003  -0.00009   0.03303
  82 4   H  1S          0.11921   0.10395  -0.00017  -0.02730  -0.10942
  83        2S          0.16231   0.16990   0.00065  -0.04447  -0.16228
  84        3S          0.02187   0.02118  -0.00163  -0.00773  -0.06500
  85        4PX         0.00530   0.00914   0.00003  -0.00015  -0.01247
  86        4PY        -0.01989  -0.01326  -0.00019   0.00473   0.00830
  87        4PZ        -0.00057  -0.00103   0.00672   0.00043   0.00059
  88 5   H  1S          0.12048  -0.10329  -0.00017  -0.02782   0.10850
  89        2S          0.16419  -0.17004   0.00074  -0.04508   0.16005
  90        3S          0.02191  -0.02047  -0.00165  -0.00784   0.06477
  91        4PX         0.00570  -0.00948   0.00004  -0.00028   0.01248
  92        4PY         0.01998  -0.01316   0.00021  -0.00478   0.00790
  93        4PZ        -0.00059   0.00104   0.00677   0.00044  -0.00057
                          11        12        13        14        15
                           O         V         V         V         V
     Eigenvalues --    -0.24349  -0.07332  -0.00886   0.01141   0.05036
   1 1   N  1S         -0.00054   0.00016  -0.00063   0.00187  -0.01403
   2        2S         -0.00090   0.00026  -0.00106   0.00304  -0.02425
   3        2PX        -0.00166   0.00034  -0.00014   0.00376  -0.02926
   4        2PY         0.00000  -0.19845  -0.00006  -0.00003  -0.00324
   5        2PZ         0.03517   0.00003  -0.20831  -0.00563   0.00114
   6        3S          0.00294  -0.00087   0.00382  -0.01624   0.10123
   7        3PX        -0.00248   0.00051  -0.00024  -0.00084  -0.03055
   8        3PY         0.00000  -0.31065  -0.00009  -0.00006  -0.00294
   9        3PZ         0.05638   0.00006  -0.32507  -0.00850   0.00131
  10        4S          0.00317  -0.00076  -0.00444   0.40012   0.08697
  11        4PX        -0.00321   0.00012   0.01119  -0.52324  -0.01448
  12        4PY         0.00002  -0.33458  -0.00010   0.00010  -0.01667
  13        4PZ         0.05313   0.00005  -0.38170  -0.01534   0.00546
  14        5S         -0.02776  -0.00671   0.00550  -3.00625   1.95719
  15        5PX        -0.01996  -0.00258   0.04727  -3.65994  -0.22828
  16        5PY         0.00002  -0.27100  -0.00006  -0.00103   0.11164
  17        5PZ        -0.02027   0.00003  -0.55307  -0.02757  -0.02556
  18        6D 0       -0.00013  -0.00001   0.00014  -0.00257  -0.00168
  19        6D+1       -0.01726   0.00000   0.00190   0.00004   0.00008
  20        6D-1        0.00000   0.00012   0.00000   0.00000   0.00001
  21        6D+2        0.00009   0.00001  -0.00014   0.00480   0.00397
  22        6D-2        0.00000   0.01237   0.00000   0.00000   0.00007
  23        7D 0       -0.00068  -0.00004   0.00055  -0.03053  -0.00738
  24        7D+1       -0.07089  -0.00001   0.00592   0.00038  -0.00006
  25        7D-1        0.00002   0.00044   0.00002   0.00000   0.00002
  26        7D+2       -0.00015   0.00002  -0.00202   0.05687   0.01010
  27        7D-2       -0.00001   0.04530  -0.00001  -0.00008  -0.00077
  28 2   N  1S          0.00005  -0.00002   0.00045  -0.01565  -0.01628
  29        2S          0.00008  -0.00004   0.00074  -0.02545  -0.02755
  30        2PX         0.00202  -0.00022   0.00046  -0.01650   0.01694
  31        2PY        -0.00001   0.22801   0.00004   0.00007   0.00761
  32        2PZ        -0.20786  -0.00004   0.14727   0.00403  -0.00096
  33        3S         -0.00029   0.00013  -0.00230   0.07355   0.10418
  34        3PX         0.00286  -0.00033   0.00044  -0.01843   0.01052
  35        3PY        -0.00001   0.34471   0.00006   0.00011   0.01211
  36        3PZ        -0.30719  -0.00006   0.22165   0.00614  -0.00172
  37        4S          0.00162   0.00023  -0.00674   0.37458   0.07137
  38        4PX         0.00147  -0.00037   0.00154  -0.13647   0.12571
  39        4PY        -0.00001   0.39959   0.00007   0.00017   0.01538
  40        4PZ        -0.29159  -0.00006   0.29179   0.00809  -0.00102
  41        5S          0.03867   0.00590  -0.06619   6.36287   0.15186
  42        5PX        -0.00816  -0.00161   0.01368  -1.50086  -0.15438
  43        5PY        -0.00001   0.26339   0.00008   0.00011  -0.03666
  44        5PZ        -0.06187  -0.00005   0.36470   0.00005   0.00483
  45        6D 0        0.00008  -0.00001   0.00007  -0.00044  -0.00115
  46        6D+1        0.00533   0.00000   0.00683   0.00022  -0.00002
  47        6D-1        0.00000   0.00001   0.00000   0.00000   0.00000
  48        6D+2       -0.00008   0.00001  -0.00006   0.00032   0.00132
  49        6D-2        0.00000   0.00299   0.00000   0.00000  -0.00001
  50        7D 0        0.00003   0.00000   0.00019  -0.00197   0.00237
  51        7D+1        0.00492   0.00000   0.01888   0.00041  -0.00017
  52        7D-1        0.00000   0.00011   0.00000   0.00000   0.00001
  53        7D+2        0.00009  -0.00002   0.00000   0.00486  -0.00106
  54        7D-2        0.00000   0.01269   0.00000  -0.00001  -0.00028
  55 3   C  1S          0.00218  -0.00013   0.00306  -0.03916   0.00805
  56        2S          0.00356  -0.00021   0.00506  -0.06551   0.01304
  57        2PX         0.00289  -0.00003   0.00326  -0.01817   0.02708
  58        2PY         0.00000  -0.00287   0.00001   0.00015   0.01054
  59        2PZ         0.19275  -0.00001   0.12521   0.00533  -0.00146
  60        3S         -0.00974   0.00062  -0.01491   0.24655  -0.01983
  61        3PX         0.00482   0.00000   0.00706  -0.09386   0.06685
  62        3PY         0.00000  -0.00932   0.00001   0.00019   0.02207
  63        3PZ         0.29212  -0.00002   0.19522   0.00750  -0.00421
  64        4S         -0.02182   0.00058  -0.01978  -0.80346  -0.25884
  65        4PX         0.00344  -0.00069   0.02279  -0.68546  -0.03918
  66        4PY        -0.00002  -0.05298   0.00002   0.00110   0.00106
  67        4PZ         0.31303  -0.00001   0.36650   0.01613  -0.00252
  68        5S         -0.00628   0.00144   0.05720  -3.53006  -1.49158
  69        5PX        -0.00002   0.00069   0.01118  -0.38637  -1.94912
  70        5PY        -0.00001   0.11290   0.00007   0.00136  -0.24319
  71        5PZ         0.06731  -0.00002   0.60029   0.00005   0.02776
  72        6D 0        0.00008   0.00002  -0.00037  -0.00054  -0.00289
  73        6D+1        0.00588   0.00001  -0.01433  -0.00034   0.00026
  74        6D-1        0.00000   0.00045   0.00000   0.00000   0.00008
  75        6D+2        0.00007  -0.00013  -0.00009   0.00212   0.00903
  76        6D-2        0.00000  -0.02175   0.00000  -0.00001  -0.00053
  77        7D 0        0.00157   0.00015   0.00020   0.03724   0.00392
  78        7D+1       -0.00150   0.00001  -0.04945  -0.00233   0.00047
  79        7D-1        0.00002   0.00022  -0.00003   0.00000   0.00011
  80        7D+2        0.00060  -0.00019   0.00243  -0.06775   0.05266
  81        7D-2       -0.00002  -0.04538  -0.00003  -0.00022  -0.00193
  82 4   H  1S          0.00191   0.05938   0.00408   0.00298  -0.00710
  83        2S          0.00438   0.12443   0.01088  -0.01821   0.06476
  84        3S         -0.00147   0.20330   0.01578  -0.24868  -0.16964
  85        4PX         0.00081  -0.00241   0.00045   0.00734  -0.00581
  86        4PY        -0.00053  -0.00117   0.00002  -0.01679  -0.00597
  87        4PZ         0.01803   0.00006   0.02077  -0.00010  -0.00049
  88 5   H  1S          0.00193  -0.05933   0.00409   0.00311  -0.01536
  89        2S          0.00442  -0.12405   0.01091  -0.01815   0.07181
  90        3S         -0.00147  -0.20398   0.01586  -0.24690  -0.31494
  91        4PX         0.00081   0.00238   0.00045   0.00752  -0.00739
  92        4PY         0.00053  -0.00102  -0.00003   0.01690   0.00320
  93        4PZ         0.01802  -0.00007   0.02084  -0.00012  -0.00045
                          16        17        18        19        20
                           V         V         V         V         V
     Eigenvalues --     0.05067   0.08069   0.10834   0.13835   0.14477
   1 1   N  1S         -0.00197   0.00098  -0.02366  -0.00040   0.01215
   2        2S         -0.00341   0.00173  -0.04001  -0.00070   0.02132
   3        2PX        -0.00406   0.00077   0.00937  -0.00062   0.01246
   4        2PY         0.02082   0.00004  -0.00059  -0.05746  -0.00144
   5        2PZ         0.00016   0.07880   0.00124   0.00029  -0.01046
   6        3S          0.01420  -0.00889   0.15835   0.00308  -0.09494
   7        3PX        -0.00426   0.00133   0.00016  -0.00100   0.02304
   8        3PY         0.01728   0.00007  -0.00089  -0.06650  -0.00139
   9        3PZ         0.00018   0.09985   0.00145   0.00035  -0.01125
  10        4S          0.00760   0.03637  -0.30136  -0.01120   0.33153
  11        4PX         0.00118  -0.04355  -0.66142   0.02089  -0.48741
  12        4PY         0.12018   0.00016  -0.00223  -0.23785  -0.00742
  13        4PZ         0.00076   0.32456   0.00366   0.00136  -0.04713
  14        5S          0.26158  -0.61768  13.93306   0.16199  -6.72500
  15        5PX        -0.02991  -0.39333   4.57253   0.13586  -4.52981
  16        5PY        -0.82887   0.00040  -0.00194   0.33001   0.00877
  17        5PZ        -0.00313  -0.65581   0.00788   0.00064   0.00895
  18        6D 0       -0.00021   0.00012   0.00067  -0.00003   0.00146
  19        6D+1        0.00001   0.00237   0.00005   0.00004  -0.00188
  20        6D-1       -0.00006   0.00000   0.00000  -0.00011   0.00000
  21        6D+2        0.00053   0.00000  -0.00214  -0.00010   0.00274
  22        6D-2       -0.00047   0.00000  -0.00006  -0.01039  -0.00037
  23        7D 0       -0.00078  -0.00138   0.04106  -0.00040   0.01177
  24        7D+1       -0.00001   0.00977  -0.00107   0.00002   0.00072
  25        7D-1       -0.00018   0.00000   0.00000  -0.00031  -0.00003
  26        7D+2        0.00097   0.00353  -0.07008  -0.00097   0.03542
  27        7D-2        0.00374  -0.00001   0.00013   0.01001   0.00030
  28 2   N  1S         -0.00214  -0.00026   0.03058  -0.00007   0.00114
  29        2S         -0.00362  -0.00036   0.05045  -0.00011   0.00183
  30        2PX         0.00242  -0.00078  -0.00760   0.00103  -0.02698
  31        2PY        -0.05502  -0.00001   0.00017  -0.08580  -0.00289
  32        2PZ        -0.00013  -0.08776  -0.00128   0.00011  -0.01435
  33        3S          0.01372   0.00004  -0.17802   0.00051  -0.00625
  34        3PX         0.00152   0.00042  -0.02941   0.00114  -0.02463
  35        3PY        -0.08702  -0.00002   0.00027  -0.08917  -0.00303
  36        3PZ        -0.00022  -0.12698  -0.00172   0.00007  -0.01386
  37        4S          0.00874   0.02215   0.35394  -0.00941   0.15803
  38        4PX         0.01730  -0.01376  -0.53347   0.01074  -0.24262
  39        4PY        -0.11201  -0.00004   0.00036  -0.34674  -0.01158
  40        4PZ        -0.00014  -0.23957  -0.00716   0.00051  -0.06002
  41        5S          0.01645   0.79155 -12.34994  -0.25882   9.28302
  42        5PX        -0.01907  -0.19696   4.68801   0.05148  -2.15697
  43        5PY         0.27723  -0.00034   0.00318   1.08444   0.03608
  44        5PZ         0.00054   0.29321   0.03513  -0.00263   0.19971
  45        6D 0       -0.00016   0.00005  -0.00017  -0.00003   0.00118
  46        6D+1        0.00000  -0.00327  -0.00005  -0.00003   0.00123
  47        6D-1        0.00000   0.00000   0.00000   0.00003   0.00000
  48        6D+2        0.00018  -0.00012   0.00124   0.00004  -0.00158
  49        6D-2        0.00018   0.00000   0.00004   0.00659   0.00020
  50        7D 0        0.00029   0.00035  -0.04238   0.00001   0.00581
  51        7D+1       -0.00002   0.00291   0.00084  -0.00006   0.00454
  52        7D-1       -0.00009   0.00000   0.00000   0.00000  -0.00001
  53        7D+2       -0.00006  -0.00018   0.07338  -0.00047   0.00502
  54        7D-2        0.00225   0.00000   0.00012   0.02813   0.00089
  55 3   C  1S          0.00112  -0.00222   0.00365   0.00145  -0.04238
  56        2S          0.00181  -0.00359   0.00587   0.00233  -0.06779
  57        2PX         0.00340  -0.00180  -0.04130   0.00187  -0.05602
  58        2PY        -0.07467  -0.00003   0.00088   0.06168   0.00289
  59        2PZ        -0.00019  -0.14824  -0.00196  -0.00045   0.01362
  60        3S         -0.00273   0.01126  -0.02359  -0.00563   0.15643
  61        3PX         0.00899  -0.00682  -0.05429   0.00283  -0.08876
  62        3PY        -0.15780  -0.00005   0.00135   0.07328   0.00339
  63        3PZ        -0.00055  -0.21056  -0.00141  -0.00050   0.01674
  64        4S         -0.03088  -0.05061  -0.23900  -0.01675   0.70247
  65        4PX        -0.00024  -0.06035  -0.51780   0.04424  -1.19088
  66        4PY        -0.00298  -0.00023   0.00477   0.44349   0.02539
  67        4PZ        -0.00040  -0.51963  -0.01329  -0.00307   0.09413
  68        5S         -0.19702  -0.04409  -0.94312  -0.01941   0.83053
  69        5PX        -0.25699   0.00490  -0.80104   0.03072  -0.69512
  70        5PY         1.81490  -0.00002   0.00117  -0.38850  -0.00529
  71        5PZ         0.00346   1.41917   0.01050   0.00058  -0.08940
  72        6D 0       -0.00037   0.00058  -0.00764  -0.00047   0.01471
  73        6D+1        0.00003   0.00352   0.00010  -0.00001   0.00057
  74        6D-1       -0.00059   0.00000   0.00000  -0.00037  -0.00002
  75        6D+2        0.00128   0.00013   0.00942  -0.00037   0.01225
  76        6D-2        0.00379  -0.00001   0.00001   0.00444   0.00005
  77        7D 0        0.00023   0.00424  -0.00997  -0.00309   0.08315
  78        7D+1        0.00007   0.00154  -0.00162  -0.00001   0.00401
  79        7D-1       -0.00080  -0.00006   0.00000  -0.00034   0.00005
  80        7D+2        0.00828  -0.00507   0.00675   0.00188  -0.04402
  81        7D-2        0.00946  -0.00002   0.00046   0.05209   0.00094
  82 4   H  1S         -0.03309  -0.00447   0.00760  -0.00821  -0.08326
  83        2S          0.03103   0.00061  -0.04008  -0.01323  -0.12106
  84        3S         -0.56782  -0.09164   0.21199  -0.54879  -2.66333
  85        4PX        -0.00609   0.00011  -0.01025   0.01085  -0.00156
  86        4PY         0.00960   0.00003  -0.00349  -0.01148  -0.02222
  87        4PZ         0.00010  -0.00728  -0.00037  -0.00095   0.00028
  88 5   H  1S          0.02989  -0.00449   0.00811   0.01391  -0.08241
  89        2S         -0.01225   0.00046  -0.03951   0.02050  -0.11773
  90        3S          0.50413  -0.09220   0.22217   0.72061  -2.60688
  91        4PX         0.00446   0.00010  -0.01031  -0.01102  -0.00198
  92        4PY         0.01081  -0.00002   0.00346  -0.01291   0.02173
  93        4PZ        -0.00023  -0.00735  -0.00036   0.00092   0.00034
                          21        22        23        24        25
                           V         V         V         V         V
     Eigenvalues --     0.14887   0.18856   0.21487   0.22142   0.22436
   1 1   N  1S          0.00204  -0.01856   0.00001   0.01157  -0.00221
   2        2S          0.00361  -0.03092   0.00003   0.01956  -0.00376
   3        2PX         0.00194  -0.02263  -0.00020   0.05780  -0.01202
   4        2PY        -0.00012  -0.00081  -0.10515   0.00100  -0.00022
   5        2PZ         0.02510  -0.00013   0.00002  -0.02101  -0.09455
   6        3S         -0.01678   0.05141  -0.00032  -0.05689   0.01190
   7        3PX         0.00346  -0.01228  -0.00008   0.05128  -0.00971
   8        3PY        -0.00009  -0.00116  -0.12779   0.00190  -0.00040
   9        3PZ         0.01908   0.00016   0.00003  -0.02281  -0.10175
  10        4S          0.06825   1.11482   0.00101  -0.30589   0.03446
  11        4PX        -0.09057  -0.84846   0.00363  -1.22452   0.26907
  12        4PY        -0.00078  -0.00339  -0.55518   0.00527  -0.00112
  13        4PZ         0.09858  -0.00527   0.00014  -0.12282  -0.49034
  14        5S         -1.27898  -6.28537  -0.02359  -0.84149   0.27476
  15        5PX        -0.84200  -6.28249   0.01611  -9.28545   2.03393
  16        5PY         0.00032   0.00149   3.87193   0.05245  -0.01004
  17        5PZ        -0.31705  -0.03563  -0.00083   0.79143   3.89716
  18        6D 0        0.00033   0.01604  -0.00004   0.00465  -0.00099
  19        6D+1        0.00848  -0.00024   0.00000   0.00057   0.00373
  20        6D-1        0.00000   0.00000  -0.00011   0.00001   0.00000
  21        6D+2        0.00046  -0.02719   0.00010  -0.00355   0.00088
  22        6D-2       -0.00004  -0.00002   0.00228   0.00019  -0.00004
  23        7D 0        0.00177  -0.00823  -0.00005   0.02837  -0.00594
  24        7D+1       -0.01382  -0.00045  -0.00003  -0.00013  -0.00282
  25        7D-1        0.00000  -0.00002   0.00060   0.00008  -0.00001
  26        7D+2        0.00686   0.01397   0.00040  -0.04510   0.00839
  27        7D-2        0.00002  -0.00033   0.01158   0.00023  -0.00006
  28 2   N  1S          0.00021   0.03677  -0.00010  -0.00018   0.00001
  29        2S          0.00035   0.06078  -0.00017   0.00160  -0.00042
  30        2PX        -0.00545   0.09176  -0.00038   0.02206  -0.00570
  31        2PY        -0.00026   0.00092   0.04554  -0.00204   0.00042
  32        2PZ         0.10781   0.00066   0.00000   0.00627   0.02346
  33        3S         -0.00152  -0.17713   0.00068  -0.06384   0.01443
  34        3PX        -0.00473   0.16902  -0.00038  -0.01403   0.00094
  35        3PY        -0.00027   0.00116   0.04200  -0.00252   0.00052
  36        3PZ         0.11343   0.00103   0.00000   0.00452   0.01662
  37        4S          0.02999  -0.65805  -0.00192   1.38615  -0.29673
  38        4PX        -0.04671   0.06098   0.00104  -0.59472   0.12141
  39        4PY        -0.00103   0.00379   0.27269  -0.00823   0.00169
  40        4PZ         0.44376   0.00207  -0.00002   0.04447   0.19445
  41        5S          1.73159  14.36673  -0.01469  10.73922  -2.40396
  42        5PX        -0.39447  -4.25230   0.00049  -0.93363   0.23470
  43        5PY         0.00349  -0.00891  -2.42239  -0.00557   0.00077
  44        5PZ        -1.26678  -0.02474   0.00045  -0.49709  -2.23023
  45        6D 0        0.00016   0.00599  -0.00001  -0.00067   0.00018
  46        6D+1       -0.00478  -0.00009   0.00000   0.00047   0.00168
  47        6D-1        0.00000   0.00000   0.00003   0.00000   0.00000
  48        6D+2       -0.00025  -0.00918   0.00001   0.00068  -0.00021
  49        6D-2        0.00002   0.00003   0.00203  -0.00010   0.00002
  50        7D 0        0.00079   0.00892   0.00020  -0.03530   0.00715
  51        7D+1       -0.02970  -0.00055  -0.00001  -0.00452  -0.02384
  52        7D-1        0.00000  -0.00001  -0.00037   0.00002   0.00000
  53        7D+2        0.00104  -0.01626  -0.00021   0.07418  -0.01539
  54        7D-2        0.00008  -0.00014  -0.02031   0.00005  -0.00001
  55 3   C  1S         -0.00740   0.03864  -0.00027   0.02293  -0.00530
  56        2S         -0.01183   0.06559  -0.00044   0.03531  -0.00819
  57        2PX        -0.00952  -0.09202   0.00001   0.03016  -0.00615
  58        2PY         0.00040   0.00145  -0.01553  -0.00468   0.00094
  59        2PZ        -0.01055  -0.00017   0.00003  -0.00765  -0.04534
  60        3S          0.02747  -0.16334   0.00052   0.01670  -0.00169
  61        3PX        -0.01592  -0.24747  -0.00006   0.02305  -0.00188
  62        3PY         0.00045   0.00180  -0.04779  -0.00588   0.00119
  63        3PZ        -0.02704  -0.00304   0.00003  -0.01014  -0.02862
  64        4S          0.11485  -2.69563   0.02108  -3.69633   0.81241
  65        4PX        -0.21639  -1.37794  -0.00007  -0.90540   0.21590
  66        4PY         0.00382   0.01094  -0.23179  -0.03894   0.00777
  67        4PZ        -0.03833   0.00265   0.00030  -0.04467  -0.31996
  68        5S          0.14745  -5.27181   0.03569  -5.48910   1.17587
  69        5PX        -0.11576  -1.68872   0.00785  -1.42951   0.29851
  70        5PY         0.00062   0.00976  -1.14503  -0.05967   0.01195
  71        5PZ         0.78524  -0.00178   0.00059  -0.28905  -1.40257
  72        6D 0        0.00250   0.00087   0.00001   0.01263  -0.00286
  73        6D+1       -0.00179   0.00006   0.00000  -0.00092  -0.00481
  74        6D-1        0.00000  -0.00001  -0.00030   0.00003  -0.00001
  75        6D+2        0.00217   0.00564   0.00009  -0.00540   0.00112
  76        6D-2        0.00000   0.00004  -0.00344  -0.00035   0.00007
  77        7D 0        0.01506   0.04995  -0.00025   0.13966  -0.02990
  78        7D+1       -0.04023  -0.00253  -0.00008   0.00749   0.01822
  79        7D-1       -0.00006  -0.00004  -0.00521   0.00022   0.00007
  80        7D+2       -0.00809  -0.07238   0.00133  -0.09464   0.02416
  81        7D-2        0.00001  -0.00027   0.11151  -0.00088   0.00016
  82 4   H  1S         -0.01424   0.00064  -0.01181  -0.02080   0.00417
  83        2S         -0.02096   0.01568   0.14265   0.19558  -0.03526
  84        3S         -0.47364  -0.32393  -0.37604  -1.09545   0.24141
  85        4PX        -0.00053  -0.01199   0.01484   0.02184  -0.00377
  86        4PY        -0.00372  -0.00650  -0.01282  -0.00205   0.00028
  87        4PZ         0.00273  -0.00037  -0.00061   0.00063   0.00169
  88 5   H  1S         -0.01413   0.00178   0.01176  -0.02264   0.00453
  89        2S         -0.02035   0.01820  -0.14347   0.19010  -0.03419
  90        3S         -0.46566  -0.29365   0.35347  -1.22213   0.26734
  91        4PX        -0.00056  -0.01261  -0.01528   0.02290  -0.00398
  92        4PY         0.00369   0.00687  -0.01270   0.00297  -0.00048
  93        4PZ         0.00278  -0.00036   0.00062   0.00046   0.00155
                          26        27        28        29        30
                           V         V         V         V         V
     Eigenvalues --     0.23377   0.25646   0.29853   0.38263   0.51064
   1 1   N  1S          0.00089   0.06848   0.00717   0.03204  -0.00331
   2        2S          0.00145   0.11232   0.01434   0.05505  -0.00520
   3        2PX        -0.00074   0.01541  -0.02516  -0.10802  -0.07021
   4        2PY         0.04728  -0.00054   0.00035   0.00006  -0.08318
   5        2PZ         0.00002   0.00087  -0.00038  -0.00158  -0.00042
   6        3S         -0.00292  -0.23944  -0.13963  -0.21579   0.02689
   7        3PX         0.00042   0.03235  -0.05618  -0.22066  -0.12805
   8        3PY         0.07468  -0.00100   0.00080   0.00016  -0.15159
   9        3PZ        -0.00002   0.00001   0.00007  -0.00170  -0.00222
  10        4S         -0.04576  -3.64343   1.32588   0.94437   0.10909
  11        4PX         0.02767   0.31838  -1.40519  -3.52889  -1.72830
  12        4PY         0.24811  -0.00292   0.00106  -0.00271  -0.17466
  13        4PZ         0.00057   0.00798  -0.01411  -0.02274   0.00979
  14        5S          0.29103   7.30532 -43.17435  28.67866  -1.45728
  15        5PX         0.32055   3.18806 -19.89700   8.33147  -4.41031
  16        5PY         1.35288  -0.02805   0.01022   0.00070  -0.80944
  17        5PZ        -0.00155  -0.00655  -0.10560   0.04013   0.02352
  18        6D 0       -0.00017  -0.01053  -0.00570  -0.00894  -0.00227
  19        6D+1        0.00000   0.00014   0.00003   0.00014   0.00005
  20        6D-1        0.00032  -0.00001   0.00000   0.00000  -0.00111
  21        6D+2        0.00016   0.01950   0.01148   0.01337   0.00393
  22        6D-2        0.00600  -0.00008   0.00007  -0.00004  -0.01369
  23        7D 0       -0.00016   0.03634  -0.08579  -0.02908   0.00378
  24        7D+1       -0.00003   0.00051   0.00176  -0.00114  -0.00384
  25        7D-1        0.00374  -0.00007   0.00001   0.00001  -0.02354
  26        7D+2       -0.00095  -0.09741   0.17998   0.10402  -0.03628
  27        7D-2        0.02631  -0.00046  -0.00010   0.00078  -0.06625
  28 2   N  1S          0.00018  -0.01159  -0.00046  -0.03463  -0.00690
  29        2S          0.00017  -0.02278  -0.00047  -0.05572  -0.01071
  30        2PX        -0.00213  -0.13546  -0.11749  -0.08256  -0.01878
  31        2PY        -0.07755   0.00136  -0.00050  -0.00017   0.02914
  32        2PZ         0.00003  -0.00082  -0.00040  -0.00044   0.00178
  33        3S          0.00190   0.10945  -0.00618   0.09709  -0.01113
  34        3PX        -0.00336  -0.27814  -0.06551  -0.16224  -0.05777
  35        3PY        -0.09968   0.00180  -0.00069  -0.00054   0.03153
  36        3PZ         0.00004  -0.00161  -0.00031  -0.00097   0.00599
  37        4S         -0.03673   0.27356   0.17319   2.92224   1.50265
  38        4PX         0.00343  -0.74399  -0.91004  -1.38647  -0.91043
  39        4PY        -0.32576   0.00553  -0.00153   0.00038   0.16053
  40        4PZ         0.00005  -0.00675  -0.00183  -0.00458  -0.01408
  41        5S         -0.42503  -5.06308  49.02666 -26.68432   5.86081
  42        5PX         0.05884   1.14734 -12.47031   7.64813  -0.84038
  43        5PY         0.21308  -0.00558  -0.00088   0.00288   0.43857
  44        5PZ         0.00156   0.02039  -0.06698   0.04704  -0.04973
  45        6D 0        0.00013   0.00450   0.00327   0.00922   0.00400
  46        6D+1        0.00000  -0.00015   0.00002  -0.00005  -0.00032
  47        6D-1       -0.00001   0.00000   0.00000   0.00000  -0.00010
  48        6D+2       -0.00021  -0.00817  -0.00544  -0.01601  -0.00797
  49        6D-2       -0.00357   0.00004  -0.00002   0.00002   0.00663
  50        7D 0        0.00037  -0.02349   0.00457  -0.01850  -0.01079
  51        7D+1        0.00001   0.00125  -0.00045  -0.00015   0.00046
  52        7D-1        0.00126  -0.00003   0.00001   0.00001  -0.00521
  53        7D+2       -0.00137   0.03417   0.00138   0.02031   0.04026
  54        7D-2        0.00826  -0.00017  -0.00019   0.00001   0.05803
  55 3   C  1S         -0.00139  -0.03757   0.00555  -0.00481   0.02699
  56        2S         -0.00229  -0.06705   0.01040  -0.00918   0.04754
  57        2PX        -0.00059   0.11059   0.13285   0.10413   0.04334
  58        2PY        -0.18425   0.00316  -0.00127  -0.00041   0.05485
  59        2PZ         0.00006  -0.00005   0.00150   0.00038   0.01270
  60        3S          0.00394   0.22101   0.02327   0.09033  -0.09856
  61        3PX         0.00262   0.34251  -0.00332  -0.05014   0.11453
  62        3PY        -0.20086   0.00231  -0.00165   0.00021   0.23650
  63        3PZ         0.00026   0.00143  -0.00251   0.00102   0.04397
  64        4S          0.11947   1.81576  -3.51133  -4.37766  -2.69536
  65        4PX         0.02835   1.77034  -0.94290  -3.87800  -1.49166
  66        4PY        -1.61564   0.02665  -0.00457   0.00284   1.28330
  67        4PZ        -0.00011  -0.00845   0.01797   0.00342  -0.11483
  68        5S          0.06129  -1.86991  -3.00739  -1.54313  -1.02063
  69        5PX        -0.04069  -1.72146   0.45647   0.05637  -0.70018
  70        5PY        -2.45168   0.05752  -0.01411  -0.01131  -0.37431
  71        5PZ         0.00126  -0.00634   0.01290  -0.02472   0.07458
  72        6D 0       -0.00022   0.00478   0.00409  -0.00925  -0.02138
  73        6D+1        0.00000  -0.00014   0.00026   0.00071   0.00040
  74        6D-1        0.00109  -0.00002   0.00001   0.00000  -0.00183
  75        6D+2       -0.00027  -0.01719   0.00200   0.03389   0.00726
  76        6D-2       -0.01149   0.00023  -0.00011  -0.00018   0.02307
  77        7D 0       -0.00374  -0.05104   0.13605   0.19027  -0.05168
  78        7D+1       -0.00001   0.00583  -0.00127  -0.01183   0.00637
  79        7D-1        0.00999  -0.00031   0.00017   0.00009  -0.09956
  80        7D+2        0.00284   0.09004  -0.15162  -0.33895  -0.12626
  81        7D-2       -0.00688   0.00104  -0.00177   0.00064  -0.06452
  82 4   H  1S          0.02739   0.00039  -0.00920  -0.03787  -0.00322
  83        2S          0.03083   0.09986   0.04368  -0.52000  -0.38829
  84        3S          3.05444   0.41274  -0.68810   0.73945  -1.02321
  85        4PX        -0.02103   0.03529  -0.00917  -0.04189   0.02435
  86        4PY         0.02268   0.00237   0.00769   0.00591   0.06286
  87        4PZ         0.00290  -0.00004   0.00054   0.00112  -0.00587
  88 5   H  1S         -0.02716  -0.00001  -0.00973  -0.03667   0.14362
  89        2S         -0.03877   0.09142   0.04661  -0.51483   1.96855
  90        3S         -3.00095   0.55544  -0.71901   0.71427  -2.87191
  91        4PX         0.02162   0.03458  -0.00887  -0.04245  -0.01605
  92        4PY         0.02244  -0.00474  -0.00694  -0.00417   0.04871
  93        4PZ        -0.00291   0.00012   0.00050   0.00105   0.00343
                          31        32        33        34        35
                           V         V         V         V         V
     Eigenvalues --     0.51204   0.54846   0.56034   0.64409   0.66919
   1 1   N  1S         -0.00446  -0.00078   0.00008  -0.00362  -0.00003
   2        2S         -0.00704  -0.00146   0.00015  -0.00383  -0.00004
   3        2PX        -0.08280  -0.01099   0.00017  -0.19935  -0.00291
   4        2PY         0.06947   0.00039  -0.02610   0.00044   0.00213
   5        2PZ        -0.00082   0.03863  -0.00003  -0.00070   0.00000
   6        3S          0.03215   0.01338  -0.00058   0.11253   0.00433
   7        3PX        -0.15024  -0.02390   0.00056  -0.43296  -0.00893
   8        3PY         0.12602   0.00076  -0.06435   0.00032   0.06925
   9        3PZ        -0.00340   0.10344  -0.00019  -0.00222  -0.00010
  10        4S          0.20317  -0.04447  -0.00944  -6.32122  -0.17480
  11        4PX        -2.07896  -0.15736   0.01033  -0.58750  -0.00124
  12        4PY         0.15357   0.00064   0.00825   0.01090  -0.40724
  13        4PZ         0.01311  -0.30146  -0.00087  -0.00301   0.00014
  14        5S         -1.46345  -0.48738  -0.02859 -14.79223  -0.29043
  15        5PX        -5.12999  -0.72156   0.00729  -6.53775  -0.07246
  16        5PY         0.69593   0.00397  -0.05224   0.04304  -2.17770
  17        5PZ         0.03039  -0.73590  -0.00243  -0.01930   0.00273
  18        6D 0       -0.00268  -0.00050   0.00004   0.00460   0.00015
  19        6D+1        0.00000   0.00647  -0.00005   0.00002  -0.00001
  20        6D-1        0.00099   0.00001   0.01016  -0.00004   0.00187
  21        6D+2        0.00439   0.00088   0.00001   0.00144   0.00000
  22        6D-2        0.01157   0.00007  -0.00564   0.00018   0.00050
  23        7D 0        0.00191   0.01067   0.00026   0.28619   0.01160
  24        7D+1       -0.00509   0.09289   0.00057  -0.00446  -0.00011
  25        7D-1        0.02080   0.00006   0.19293  -0.00073   0.02886
  26        7D+2       -0.04153  -0.01048   0.00011  -0.46004  -0.01157
  27        7D-2        0.05462   0.00037  -0.01472  -0.00289   0.09763
  28 2   N  1S         -0.00806  -0.00090   0.00002  -0.01619  -0.00042
  29        2S         -0.01247  -0.00153   0.00003  -0.02554  -0.00072
  30        2PX        -0.02082  -0.00254  -0.00014   0.01381   0.00199
  31        2PY        -0.02448  -0.00015   0.01059  -0.00056   0.03376
  32        2PZ         0.00238  -0.03492   0.00006  -0.00025  -0.00001
  33        3S         -0.01372   0.00065   0.00002  -0.08090  -0.00077
  34        3PX        -0.06524  -0.01012  -0.00013  -0.03764   0.00180
  35        3PY        -0.02611  -0.00019   0.01430  -0.00050   0.08027
  36        3PZ         0.00779  -0.10093  -0.00002  -0.00109  -0.00003
  37        4S          1.78203   0.17080  -0.00614   3.49581   0.08316
  38        4PX        -1.07211  -0.11431   0.00273  -3.11855  -0.07738
  39        4PY        -0.13738  -0.00075   0.01924  -0.00211  -0.03488
  40        4PZ        -0.01721   0.11319   0.00007  -0.01577  -0.00050
  41        5S          6.67133   1.10182   0.01105  15.60829   0.21836
  42        5PX        -0.92836  -0.19224  -0.00556  -3.06529  -0.03839
  43        5PY        -0.37284  -0.00190   0.03786  -0.01718   0.84048
  44        5PZ        -0.06076   0.55092   0.00147  -0.02002  -0.00156
  45        6D 0        0.00470   0.00050  -0.00001   0.01758   0.00041
  46        6D+1       -0.00039   0.00109   0.00000  -0.00032  -0.00001
  47        6D-1        0.00009   0.00000   0.00087   0.00000   0.00015
  48        6D+2       -0.00939  -0.00092   0.00002  -0.03139  -0.00068
  49        6D-2       -0.00562  -0.00003   0.00149  -0.00006  -0.00080
  50        7D 0       -0.01256  -0.00026   0.00009  -0.08963  -0.00148
  51        7D+1        0.00081  -0.03149   0.00025   0.00167   0.00004
  52        7D-1        0.00468   0.00002   0.06534  -0.00030   0.01228
  53        7D+2        0.04705   0.00697  -0.00016   0.17538   0.00645
  54        7D-2       -0.04848  -0.00032   0.02975  -0.00107   0.00649
  55 3   C  1S          0.03234   0.00526  -0.00022   0.00383   0.00056
  56        2S          0.05703   0.00930  -0.00040  -0.00079   0.00089
  57        2PX         0.05142   0.00800  -0.00040  -0.22460  -0.00435
  58        2PY        -0.04659  -0.00056   0.04068   0.00528  -0.25502
  59        2PZ         0.01630  -0.23481  -0.00036   0.00021   0.00024
  60        3S         -0.12211  -0.03365   0.00178   0.17466  -0.00394
  61        3PX         0.13008   0.03488  -0.00039  -0.14707   0.00092
  62        3PY        -0.19977  -0.00185   0.14639   0.01440  -0.75883
  63        3PZ         0.05684  -0.88034  -0.00107  -0.00411   0.00105
  64        4S         -3.22369  -0.17375   0.01163   0.65153   0.06753
  65        4PX        -1.85225  -0.19187   0.01696   3.25116   0.11423
  66        4PY        -1.09537  -0.00309  -0.10287  -0.09429   4.41489
  67        4PZ        -0.14456   1.81336   0.00281  -0.01375  -0.00322
  68        5S         -1.19198  -0.08024   0.00010  -0.61877   0.03453
  69        5PX        -0.81623  -0.11473   0.00088   0.03381   0.02664
  70        5PY         0.30671   0.00155  -0.13203  -0.02400   1.51222
  71        5PZ         0.09193  -0.49228  -0.00021  -0.01311  -0.00087
  72        6D 0       -0.02556  -0.00421   0.00015  -0.00813  -0.00019
  73        6D+1        0.00059  -0.01356  -0.00002  -0.00007   0.00000
  74        6D-1        0.00156  -0.00001   0.00254   0.00000   0.00025
  75        6D+2        0.00835   0.00138  -0.00001   0.02197   0.00033
  76        6D-2       -0.01915  -0.00011   0.00664   0.00006  -0.00802
  77        7D 0       -0.06711  -0.01072   0.00203  -0.08174   0.00054
  78        7D+1        0.00813  -0.11622   0.00154   0.01371   0.00068
  79        7D-1        0.08817   0.00032   0.85717  -0.00356   0.14332
  80        7D+2       -0.15449  -0.01473   0.00328   0.86354   0.01192
  81        7D-2        0.05399  -0.00023   0.08595   0.00387  -0.44829
  82 4   H  1S          0.14426   0.01539  -0.02445  -0.01672   0.05687
  83        2S          1.91993   0.11370  -0.20219   0.39056  -0.71483
  84        3S         -3.08360  -0.37677   0.42025   0.49857  -2.91298
  85        4PX        -0.01393  -0.00386   0.01451   0.03740  -0.04019
  86        4PY        -0.03721   0.00364   0.00290  -0.06115   0.10970
  87        4PZ         0.00283   0.00206   0.03500  -0.00320   0.00606
  88 5   H  1S          0.02201   0.01468   0.02350  -0.01524  -0.05597
  89        2S         -0.06604   0.10418   0.19803   0.35179   0.73418
  90        3S         -1.56313  -0.36719  -0.39380   0.40163   2.95068
  91        4PX         0.01950  -0.00353  -0.01382   0.03877   0.04165
  92        4PY        -0.05577  -0.00382   0.00362   0.05507   0.11001
  93        4PZ        -0.00553   0.00269  -0.03460  -0.00286  -0.00605
                          36        37        38        39        40
                           V         V         V         V         V
     Eigenvalues --     0.75913   0.76463   0.77220   0.77992   0.79652
   1 1   N  1S          0.00770   0.00282  -0.00006  -0.00068  -0.00166
   2        2S          0.01372   0.00705  -0.00013  -0.00128  -0.00310
   3        2PX        -0.06922   0.13135  -0.00218  -0.00029  -0.00070
   4        2PY        -0.00086  -0.00208  -0.10484  -0.00001  -0.00008
   5        2PZ        -0.01732  -0.00854   0.00027  -0.11558  -0.09296
   6        3S         -0.12154  -0.00377  -0.00004   0.00965   0.02171
   7        3PX        -0.12862   0.07172  -0.00139   0.00572   0.00819
   8        3PY        -0.00208  -0.00821  -0.39249  -0.00010  -0.00036
   9        3PZ        -0.05356  -0.02809   0.00086  -0.43828  -0.27613
  10        4S          1.19063  -2.82649   0.04860   0.00046  -0.00569
  11        4PX         0.90849  -2.20496   0.02351   0.00798  -0.05934
  12        4PY        -0.00337   0.01145   1.05306   0.00071   0.00120
  13        4PZ         0.02624   0.00708  -0.00074   0.73477  -0.04578
  14        5S         -7.62153  -2.12185   0.00175   0.43740   0.74192
  15        5PX        -4.27105   1.86041  -0.06461   0.13766   0.14645
  16        5PY        -0.02350  -0.00422  -1.16910   0.00063  -0.00044
  17        5PZ        -0.20539  -0.08696   0.00294  -0.80524  -0.98171
  18        6D 0       -0.01167  -0.00275   0.00011   0.00074   0.00097
  19        6D+1       -0.00437  -0.00241   0.00006  -0.00261  -0.04249
  20        6D-1        0.00002   0.00000   0.00060  -0.00001  -0.00004
  21        6D+2       -0.00847  -0.01082   0.00014   0.00093   0.00178
  22        6D-2       -0.00019  -0.00009   0.01721   0.00002   0.00000
  23        7D 0       -0.50080   0.10834  -0.00154   0.03108   0.06284
  24        7D+1        0.00917  -0.00129   0.00008  -0.20664   0.17156
  25        7D-1        0.00035  -0.00005   0.00872  -0.00031  -0.00191
  26        7D+2       -0.07026  -0.46094   0.00813   0.02034   0.03372
  27        7D-2        0.00192  -0.00302  -0.27200  -0.00023  -0.00022
  28 2   N  1S         -0.00053  -0.01040   0.00020   0.00031   0.00050
  29        2S          0.00087  -0.01999   0.00040   0.00048   0.00080
  30        2PX        -0.08512   0.20770  -0.00327  -0.00042  -0.00198
  31        2PY         0.00081  -0.00387  -0.21380  -0.00014  -0.00013
  32        2PZ         0.00037   0.00227  -0.00002  -0.19821   0.12854
  33        3S         -0.01944   0.03639  -0.00147  -0.00003  -0.00131
  34        3PX        -0.09720   0.38938  -0.00610  -0.00354  -0.01336
  35        3PY         0.00178  -0.01364  -0.69079  -0.00043  -0.00045
  36        3PZ        -0.01422  -0.00228   0.00018  -0.69755   0.29914
  37        4S         -1.08636   3.15331  -0.04163  -0.02147   0.02709
  38        4PX         0.81360  -3.01803   0.04427   0.02855   0.02626
  39        4PY        -0.00238   0.02601   1.26030   0.00077   0.00078
  40        4PZ         0.04330  -0.00222  -0.00030   1.37611  -0.54020
  41        5S          9.05254  -1.19438   0.07407  -0.38516  -0.54229
  42        5PX        -2.26135   0.63995  -0.02085   0.09367   0.13508
  43        5PY         0.00862  -0.01305  -0.35278  -0.00063  -0.00029
  44        5PZ         0.04420   0.03248  -0.00103  -0.47930   0.68778
  45        6D 0       -0.00287   0.00793  -0.00011   0.00018   0.00018
  46        6D+1        0.00130   0.00043  -0.00002   0.01728   0.00120
  47        6D-1        0.00000   0.00000   0.00014   0.00000  -0.00002
  48        6D+2       -0.00253  -0.01585   0.00022   0.00052   0.00098
  49        6D-2        0.00001   0.00033   0.01258   0.00001   0.00001
  50        7D 0       -0.17816  -0.24567   0.00440   0.02394   0.04630
  51        7D+1        0.03433   0.02125  -0.00055   0.08574   0.30078
  52        7D-1        0.00020   0.00001   0.00660  -0.00019  -0.00129
  53        7D+2       -0.26487   0.22159  -0.00310   0.01199   0.02691
  54        7D-2        0.00118   0.00118  -0.03755  -0.00004   0.00015
  55 3   C  1S         -0.02205   0.03886  -0.00089   0.00063  -0.00010
  56        2S         -0.04426   0.07625  -0.00169   0.00124  -0.00010
  57        2PX        -0.06798   0.06799  -0.00175   0.00197   0.00080
  58        2PY        -0.00190   0.00093  -0.02634   0.00005  -0.00005
  59        2PZ        -0.00852  -0.00396   0.00013   0.00238  -0.07233
  60        3S          0.23351  -0.84088   0.01890   0.00609   0.02860
  61        3PX        -0.39890   0.15783  -0.00334   0.02254   0.03233
  62        3PY        -0.00516   0.00525  -0.05260  -0.00010  -0.00053
  63        3PZ        -0.03344  -0.00156   0.00014  -0.09672  -0.20935
  64        4S          0.49288   3.05713  -0.09148  -0.10643  -0.31798
  65        4PX        -0.17573  -0.73098   0.01728   0.02412  -0.00169
  66        4PY         0.05609  -0.00338   0.54303  -0.00307  -0.00341
  67        4PZ         0.16506   0.07900  -0.00228  -0.10774   0.81808
  68        5S         -0.81475   2.07511  -0.04557  -0.01630  -0.08637
  69        5PX         0.03293   0.68383  -0.00926  -0.03185  -0.06069
  70        5PY         0.01757   0.00169   0.85323  -0.00037   0.00030
  71        5PZ         0.04855   0.03793  -0.00131   0.50719   0.16944
  72        6D 0        0.00254   0.00050   0.00003  -0.00049  -0.00080
  73        6D+1        0.00140   0.00077  -0.00002   0.00137   0.01389
  74        6D-1        0.00000   0.00000   0.00057   0.00001   0.00001
  75        6D+2       -0.00010  -0.00925   0.00015   0.00035   0.00116
  76        6D-2        0.00003   0.00001  -0.00591   0.00000  -0.00001
  77        7D 0       -0.70411  -0.21921   0.00548   0.03972   0.07064
  78        7D+1        0.09833   0.04090  -0.00093   0.03315   1.04721
  79        7D-1        0.00147   0.00019   0.02633  -0.00029  -0.00083
  80        7D+2       -0.33524  -0.53674   0.00675   0.03275   0.04315
  81        7D-2       -0.00069   0.00019  -0.70539  -0.00001   0.00057
  82 4   H  1S         -0.03398   0.01305   0.01825   0.00237   0.00165
  83        2S         -0.98517  -0.83192  -0.41582   0.08706   0.15552
  84        3S         -0.18713  -0.21616  -0.55917  -0.01190  -0.01836
  85        4PX        -0.01467  -0.05157  -0.00432   0.00343   0.00700
  86        4PY         0.01758   0.09780   0.05562  -0.00230  -0.00550
  87        4PZ        -0.00238   0.00380   0.00232  -0.01947  -0.03630
  88 5   H  1S         -0.03403   0.01300  -0.01912   0.00235   0.00156
  89        2S         -0.96156  -0.81653   0.45743   0.08499   0.15200
  90        3S         -0.11966  -0.23683   0.57327  -0.01453  -0.02003
  91        4PX        -0.01641  -0.05282   0.00946   0.00351   0.00721
  92        4PY        -0.01428  -0.09656   0.06024   0.00202   0.00517
  93        4PZ        -0.00263   0.00372  -0.00252  -0.02014  -0.03791
                          41        42        43        44        45
                           V         V         V         V         V
     Eigenvalues --     0.86254   0.86693   0.87096   0.87529   0.96601
   1 1   N  1S         -0.00172  -0.03443  -0.00024  -0.00119  -0.03150
   2        2S         -0.00314  -0.06303  -0.00045  -0.00216  -0.06380
   3        2PX         0.01006   0.18224   0.00133   0.00766   0.02184
   4        2PY        -0.17742   0.00894   0.03393  -0.00009  -0.00045
   5        2PZ         0.00034   0.00990  -0.00123  -0.20017  -0.00328
   6        3S          0.01767   0.35637   0.00276   0.01103   0.62213
   7        3PX         0.01617   0.29905   0.00204   0.01520   0.02151
   8        3PY        -0.60266   0.03097   0.12598  -0.00035  -0.00268
   9        3PZ         0.00099   0.03139  -0.00429  -0.71876  -0.01423
  10        4S         -0.04808  -1.03843  -0.00936  -0.03217  -3.68329
  11        4PX        -0.38031  -7.16062  -0.04986  -0.27359   0.16696
  12        4PY         2.28054  -0.11263  -0.35308   0.00079   0.01048
  13        4PZ        -0.00571  -0.13561   0.01119   2.41300   0.02017
  14        5S         -0.28960  -5.99227  -0.05034  -0.25056   6.86699
  15        5PX        -0.56280 -11.10499  -0.08326  -0.40218   2.02497
  16        5PY        -1.52608   0.07734   0.26473  -0.00065  -0.00355
  17        5PZ        -0.00090   0.01460  -0.01153  -1.88627   0.00020
  18        6D 0        0.00009   0.00069  -0.00001   0.00025  -0.01002
  19        6D+1       -0.00002  -0.00008  -0.00006   0.01721  -0.00137
  20        6D-1        0.00124  -0.00012   0.00847  -0.00005  -0.00001
  21        6D+2        0.00021   0.00426   0.00004   0.00002   0.01960
  22        6D-2        0.01923  -0.00092   0.00075  -0.00001   0.00011
  23        7D 0        0.00060  -0.00977   0.00017  -0.00102  -0.06444
  24        7D+1        0.00004  -0.00238   0.00102   0.13740   0.00175
  25        7D-1        0.07089  -0.00769   0.58228  -0.00281   0.00027
  26        7D+2       -0.00068  -0.00230  -0.00002   0.00181  -0.40265
  27        7D-2        0.08632  -0.00630  -0.03213   0.00006   0.00055
  28 2   N  1S         -0.00007  -0.00315  -0.00002  -0.00024   0.00414
  29        2S         -0.00006  -0.00461  -0.00003  -0.00038   0.00355
  30        2PX         0.00952   0.17195   0.00123   0.00559   0.04126
  31        2PY         0.09836  -0.00437  -0.01392   0.00003  -0.00038
  32        2PZ        -0.00011  -0.00356   0.00058   0.06347   0.00225
  33        3S         -0.00458  -0.06622  -0.00046  -0.00122   0.00474
  34        3PX         0.01373   0.24401   0.00170   0.00824  -0.12457
  35        3PY         0.40445  -0.01811  -0.04542   0.00005  -0.00106
  36        3PZ        -0.00061  -0.01496   0.00177   0.26888   0.00206
  37        4S          0.29216   5.48933   0.03888   0.19310   1.01843
  38        4PX        -0.19503  -3.65883  -0.02610  -0.12350  -0.62487
  39        4PY        -1.55340   0.07446   0.20310  -0.00029  -0.00093
  40        4PZ         0.00141   0.04198  -0.00726  -1.32941  -0.01224
  41        5S          0.89766  17.81562   0.13575   0.67958  -5.58647
  42        5PX        -0.16137  -3.25241  -0.02521  -0.13371   1.48863
  43        5PY         1.21181  -0.05962  -0.16799   0.00026   0.00052
  44        5PZ        -0.00248  -0.06512   0.00651   1.14954   0.00990
  45        6D 0        0.00012   0.00189   0.00001  -0.00012  -0.01102
  46        6D+1        0.00003   0.00074  -0.00008  -0.02126   0.00039
  47        6D-1        0.00073  -0.00009   0.00748  -0.00004   0.00001
  48        6D+2       -0.00022  -0.00397  -0.00002  -0.00006   0.00517
  49        6D-2       -0.02316   0.00115   0.00249   0.00000  -0.00006
  50        7D 0       -0.00989  -0.19352  -0.00126  -0.00862  -0.68501
  51        7D+1        0.00041   0.00479   0.00052  -0.11960   0.01965
  52        7D-1        0.07243  -0.00801   0.61803  -0.00309   0.00058
  53        7D+2        0.02273   0.42769   0.00321   0.01528  -0.14198
  54        7D-2       -0.15080   0.00789  -0.01200   0.00014  -0.00025
  55 3   C  1S         -0.00436  -0.08653  -0.00062  -0.00339   0.00512
  56        2S         -0.00860  -0.17179  -0.00125  -0.00673   0.00412
  57        2PX         0.00174   0.02250   0.00021   0.00097   0.03484
  58        2PY         0.03699  -0.00232   0.00360  -0.00005  -0.00069
  59        2PZ        -0.00010  -0.00125  -0.00014   0.00652  -0.00337
  60        3S          0.07514   1.48642   0.01082   0.05717   0.19985
  61        3PX        -0.01605  -0.38574  -0.00246  -0.01956   0.63425
  62        3PY         0.26602  -0.01572   0.02947  -0.00058  -0.00786
  63        3PZ        -0.00135  -0.02122  -0.00086  -0.04111  -0.01445
  64        4S         -0.62811 -11.93533  -0.08354  -0.44786  -0.04823
  65        4PX        -0.17075  -3.13566  -0.02025  -0.10270   1.27682
  66        4PY        -0.65809   0.02875   0.18902  -0.00103  -0.02898
  67        4PZ         0.00050   0.00941  -0.00065  -0.50227  -0.04434
  68        5S         -0.29511  -5.77137  -0.04137  -0.21996  -0.59314
  69        5PX        -0.06871  -1.28373  -0.00915  -0.04731  -0.67536
  70        5PY         0.14049  -0.00749  -0.08053   0.00046   0.00576
  71        5PZ        -0.00070  -0.02624   0.00356   0.64759   0.01035
  72        6D 0       -0.00020  -0.00502  -0.00005  -0.00003  -0.00891
  73        6D+1       -0.00001  -0.00037   0.00000  -0.00418   0.00077
  74        6D-1       -0.00023   0.00003  -0.00299   0.00002  -0.00001
  75        6D+2       -0.00011  -0.00193  -0.00001  -0.00035   0.02960
  76        6D-2       -0.00141   0.00017  -0.00046   0.00001  -0.00012
  77        7D 0        0.01654   0.26069   0.00124   0.00560   0.70915
  78        7D+1        0.00144   0.01737   0.00099  -0.48859   0.05393
  79        7D-1       -0.03245   0.00369  -0.31381   0.00155  -0.00142
  80        7D+2       -0.01381  -0.20102  -0.00227  -0.00179   0.81302
  81        7D-2       -0.75261   0.03588  -0.05115   0.00073   0.00646
  82 4   H  1S         -0.00271  -0.01860  -0.00091  -0.00033   0.00834
  83        2S         -0.51711   0.67261  -0.09311   0.01864   1.27215
  84        3S          0.73685  -0.52411  -0.05068  -0.00112  -0.14707
  85        4PX         0.00065   0.08341  -0.00844   0.00402   0.03105
  86        4PY         0.04470  -0.09296   0.00369  -0.00256  -0.06289
  87        4PZ        -0.00753  -0.00396  -0.07620  -0.00441   0.00076
  88 5   H  1S          0.00039  -0.01874   0.00073  -0.00032   0.00806
  89        2S          0.59390   0.61344   0.10215   0.01606   1.22650
  90        3S         -0.79083  -0.44965   0.04258  -0.00051  -0.14335
  91        4PX         0.01089   0.08339   0.00950   0.00382   0.03100
  92        4PY         0.05422   0.08804   0.00487   0.00235   0.05972
  93        4PZ         0.00695  -0.00578   0.07618  -0.00552   0.00103
                          46        47        48        49        50
                           V         V         V         V         V
     Eigenvalues --     0.98811   1.00563   1.14258   1.23568   1.25397
   1 1   N  1S          0.04580  -0.00099   0.06088   0.00008  -0.04287
   2        2S          0.09482  -0.00217   0.13025   0.00015  -0.08894
   3        2PX         0.08227  -0.00087  -0.06745   0.00042  -0.07560
   4        2PY         0.00294   0.10798  -0.00023   0.00382   0.00049
   5        2PZ        -0.00015  -0.00013  -0.00068   0.00004  -0.00024
   6        3S         -0.90221   0.02493  -1.58956  -0.00053   0.82231
   7        3PX        -0.13681   0.00349   0.16058   0.00068  -0.11879
   8        3PY         0.01386   0.52147  -0.00209   0.01972   0.00318
   9        3PZ        -0.00374  -0.00048  -0.00163   0.00011  -0.00046
  10        4S          6.45657  -0.19844  12.14528  -0.02065   0.25308
  11        4PX        -0.17657   0.01780  -2.72394   0.02515  -9.55800
  12        4PY        -0.02363  -0.94721  -0.00004  -0.07991   0.02815
  13        4PZ         0.00071   0.00048  -0.00418  -0.00414  -0.07047
  14        5S         -1.62490  -0.12664 -16.34116  -0.03886  16.35733
  15        5PX        -2.47439  -0.01804  -8.95367  -0.00350   3.03419
  16        5PY         0.00265  -0.13494   0.01136  -0.05060  -0.00124
  17        5PZ        -0.01884   0.00018  -0.04979   0.00032   0.01493
  18        6D 0        0.01686  -0.00063   0.03152  -0.00006   0.00407
  19        6D+1       -0.00060  -0.00006  -0.00115   0.00016   0.00039
  20        6D-1        0.00002   0.00101  -0.00002  -0.01067  -0.00002
  21        6D+2       -0.02686   0.00076  -0.04962   0.00007  -0.00290
  22        6D-2        0.00088   0.03507   0.00025   0.00211  -0.00071
  23        7D 0       -0.12719   0.00400  -0.45027   0.00036   0.33189
  24        7D+1        0.00505   0.00009   0.00882   0.00133   0.00562
  25        7D-1       -0.00062  -0.01592  -0.00045  -0.80438  -0.00237
  26        7D+2        0.18380  -0.00608   1.12297  -0.00079  -0.19068
  27        7D-2       -0.00536  -0.17212   0.00327   0.01847  -0.01398
  28 2   N  1S          0.07969  -0.00215  -0.06780   0.00001   0.02494
  29        2S          0.16206  -0.00440  -0.12546   0.00001   0.05136
  30        2PX         0.04051  -0.00028  -0.08001   0.00033  -0.09550
  31        2PY        -0.00100  -0.04411  -0.00061  -0.00420   0.00243
  32        2PZ         0.00037   0.00011   0.00037  -0.00036  -0.00203
  33        3S         -1.20194   0.03288   0.96167   0.00025  -0.55338
  34        3PX         0.24966  -0.00489   0.50694   0.00098  -0.66408
  35        3PY        -0.00092  -0.05628  -0.00162  -0.01112   0.00767
  36        3PZ         0.00076   0.00018   0.00397  -0.00097  -0.00832
  37        4S          0.14527  -0.00774  -4.07984  -0.01337   8.58888
  38        4PX         0.76040  -0.02543   1.77865   0.00334  -2.96734
  39        4PY         0.00987   0.41385   0.00104   0.03561  -0.01684
  40        4PZ         0.00340  -0.00067   0.00543   0.00253  -0.00528
  41        5S          1.35944   0.15548  20.36070   0.02618 -13.35973
  42        5PX         0.08232  -0.04616  -5.13862  -0.00758   3.86112
  43        5PY        -0.00003   0.06963  -0.00308   0.01932   0.00373
  44        5PZ         0.00137  -0.00027  -0.02977  -0.00024   0.01966
  45        6D 0        0.00776  -0.00026   0.00662  -0.00001  -0.00046
  46        6D+1       -0.00012   0.00002   0.00006  -0.00008  -0.00036
  47        6D-1       -0.00002  -0.00095   0.00001   0.00553   0.00001
  48        6D+2       -0.01335   0.00037  -0.01955   0.00003  -0.00107
  49        6D-2       -0.00006  -0.00322  -0.00016  -0.00094   0.00054
  50        7D 0        0.07001  -0.00809  -0.05331  -0.00004  -0.20646
  51        7D+1        0.00058   0.00064   0.00675  -0.00272  -0.00651
  52        7D-1       -0.00223  -0.09194   0.00081   0.81233   0.00215
  53        7D+2       -0.34097   0.00747  -0.57509   0.00047  -0.00196
  54        7D-2       -0.00739  -0.30337  -0.00491  -0.02648   0.01527
  55 3   C  1S         -0.05172   0.00117   0.00394  -0.00010   0.03689
  56        2S         -0.10156   0.00228   0.03130  -0.00022   0.06892
  57        2PX         0.09761  -0.00109  -0.04839   0.00080  -0.24732
  58        2PY         0.00154   0.07273   0.00058   0.00606  -0.00106
  59        2PZ        -0.00134  -0.00003  -0.00436   0.00033  -0.00121
  60        3S          1.05143  -0.02248  -0.24112   0.00085  -0.39565
  61        3PX        -0.10606   0.01196  -1.41737   0.00393  -0.87205
  62        3PY         0.01815   0.74666  -0.00235   0.03051   0.00849
  63        3PZ        -0.00973   0.00001  -0.01602   0.00069  -0.00065
  64        4S         -5.36424   0.13440  -9.40066   0.03575  -9.09789
  65        4PX        -2.55704   0.11563  -3.57998   0.02143  -5.05283
  66        4PY         0.06616   3.06356  -0.03417   0.24358  -0.00010
  67        4PZ        -0.01362  -0.00018  -0.03063   0.00235  -0.00872
  68        5S          0.46330  -0.01979  -1.43438   0.00514  -1.29089
  69        5PX         0.77039  -0.02257   0.13599   0.00068  -0.17236
  70        5PY        -0.01043  -0.26534  -0.00810   0.00605  -0.00699
  71        5PZ         0.01197  -0.00026   0.01674  -0.00051  -0.00072
  72        6D 0        0.01058  -0.00037   0.02994   0.00000  -0.01933
  73        6D+1       -0.00038   0.00004  -0.00128   0.00000  -0.00064
  74        6D-1        0.00005   0.00215  -0.00003   0.00853   0.00005
  75        6D+2       -0.02956   0.00074  -0.07721   0.00003   0.01300
  76        6D-2       -0.00025  -0.01335   0.00017  -0.00191   0.00024
  77        7D 0        0.61927  -0.01525   0.70585  -0.00346   0.61831
  78        7D+1        0.00505   0.00206   0.00432   0.00048  -0.00444
[...]
  75        6D+2        0.00000   0.00000   0.00000   0.00000   0.00000
  76        6D-2        0.00000   0.00000   0.00000   0.00000   0.00000
  77        7D 0        0.00000   0.00000   0.00000   0.00000   0.00000
  78        7D+1        0.00000   0.00000   0.00000   0.00000   0.00000
  79        7D-1        0.00000   0.00000   0.00000   0.00000   0.00000
  80        7D+2        0.00000   0.00000   0.00000   0.00000   0.00000
  81        7D-2        0.00000   0.00000   0.00000   0.00000   0.00000
  82 4   H  1S          0.00904   0.02930   0.00004   0.01998   0.00391
  83        2S          0.01599   0.05709   0.00009   0.05756   0.00921
  84        3S          0.00138   0.00627  -0.00001   0.00726   0.00116
  85        4PX        -0.00009   0.00245   0.00001   0.00050  -0.00013
  86        4PY         0.00221   0.00205   0.00001   0.00236   0.00043
  87        4PZ         0.00001   0.00001   0.00352   0.00001   0.00000
  88 5   H  1S          0.00938   0.02888   0.00004   0.02006   0.00405
  89        2S          0.01659   0.05640   0.00009   0.05776   0.00955
  90        3S          0.00141   0.00614  -0.00001   0.00733   0.00118
  91        4PX        -0.00010   0.00253   0.00001   0.00053  -0.00015
  92        4PY         0.00227   0.00194   0.00001   0.00233   0.00044
  93        4PZ         0.00001   0.00001   0.00352   0.00001   0.00000
                          66        67        68        69        70
  66        4PY         0.05753
  67        4PZ         0.00000   0.21171
  68        5S          0.00000   0.00000   0.00495
  69        5PX         0.00000   0.00000   0.00000   0.00068
  70        5PY         0.00555   0.00000   0.00000   0.00000   0.00127
  71        5PZ         0.00000   0.02891   0.00000   0.00000   0.00000
  72        6D 0        0.00000   0.00000   0.00000   0.00000   0.00000
  73        6D+1        0.00000   0.00000   0.00000   0.00000   0.00000
  74        6D-1        0.00000   0.00000   0.00000   0.00000   0.00000
  75        6D+2        0.00000   0.00000   0.00000   0.00000   0.00000
  76        6D-2        0.00000   0.00000   0.00000   0.00000   0.00000
  77        7D 0        0.00000   0.00000   0.00000   0.00000   0.00000
  78        7D+1        0.00000   0.00000   0.00000   0.00000   0.00000
  79        7D-1        0.00000   0.00000   0.00000   0.00000   0.00000
  80        7D+2        0.00000   0.00000   0.00000   0.00000   0.00000
  81        7D-2        0.00000   0.00000   0.00000   0.00000   0.00000
  82 4   H  1S          0.01661   0.00003   0.00161   0.00005   0.00095
  83        2S          0.04306   0.00008   0.00543   0.00016   0.00339
  84        3S          0.00917  -0.00002   0.00055   0.00010   0.00122
  85        4PX         0.00064   0.00000   0.00002   0.00001   0.00001
  86        4PY        -0.00035   0.00000   0.00007   0.00000  -0.00007
  87        4PZ         0.00000   0.00354   0.00000   0.00000   0.00000
  88 5   H  1S          0.01639   0.00003   0.00160   0.00006   0.00094
  89        2S          0.04250   0.00009   0.00537   0.00019   0.00336
  90        3S          0.00901  -0.00002   0.00056   0.00010   0.00120
  91        4PX         0.00066   0.00000   0.00002   0.00001   0.00001
  92        4PY        -0.00036   0.00000   0.00007   0.00000  -0.00007
  93        4PZ         0.00000   0.00354   0.00000   0.00000   0.00000
                          71        72        73        74        75
  71        5PZ         0.00935
  72        6D 0        0.00000   0.00028
  73        6D+1        0.00000   0.00000   0.00043
  74        6D-1        0.00000   0.00000   0.00000   0.00000
  75        6D+2        0.00000   0.00000   0.00000   0.00000   0.00091
  76        6D-2        0.00000   0.00000   0.00000   0.00000   0.00000
  77        7D 0        0.00000   0.00009   0.00000   0.00000   0.00000
  78        7D+1        0.00000   0.00000   0.00030   0.00000   0.00000
  79        7D-1        0.00000   0.00000   0.00000   0.00000   0.00000
  80        7D+2        0.00000   0.00000   0.00000   0.00000   0.00023
  81        7D-2        0.00000   0.00000   0.00000   0.00000   0.00000
  82 4   H  1S          0.00000   0.00013   0.00000   0.00000   0.00029
  83        2S          0.00001   0.00010   0.00000   0.00000   0.00025
  84        3S          0.00000   0.00000   0.00000   0.00000   0.00001
  85        4PX         0.00000   0.00001   0.00000   0.00000   0.00000
  86        4PY         0.00000   0.00002   0.00000   0.00000   0.00000
  87        4PZ         0.00031   0.00000  -0.00004   0.00000   0.00000
  88 5   H  1S          0.00000   0.00013   0.00000   0.00000   0.00027
  89        2S          0.00001   0.00010   0.00000   0.00000   0.00023
  90        3S          0.00000   0.00000   0.00000   0.00000   0.00001
  91        4PX         0.00000   0.00001   0.00000   0.00000   0.00000
  92        4PY         0.00000   0.00002   0.00000   0.00000  -0.00001
  93        4PZ         0.00031   0.00000  -0.00005   0.00000   0.00000
                          76        77        78        79        80
  76        6D-2        0.00049
  77        7D 0        0.00000   0.00014
  78        7D+1        0.00000   0.00000   0.00122
  79        7D-1        0.00000   0.00000   0.00000   0.00000
  80        7D+2        0.00000   0.00000   0.00000   0.00000   0.00044
  81        7D-2        0.00053   0.00000   0.00000   0.00000   0.00000
  82 4   H  1S          0.00048   0.00012   0.00000   0.00001   0.00011
  83        2S          0.00042   0.00011   0.00000   0.00001   0.00014
  84        3S          0.00003  -0.00001   0.00000   0.00000   0.00002
  85        4PX         0.00000   0.00000   0.00000   0.00000  -0.00003
  86        4PY         0.00004   0.00000   0.00000   0.00000  -0.00002
  87        4PZ         0.00000   0.00000  -0.00007   0.00000   0.00000
  88 5   H  1S          0.00050   0.00011   0.00000   0.00001   0.00011
  89        2S          0.00043   0.00010   0.00000   0.00001   0.00014
  90        3S          0.00003   0.00000   0.00000   0.00000   0.00002
  91        4PX         0.00000   0.00000   0.00000   0.00000  -0.00003
  92        4PY         0.00004   0.00000   0.00000   0.00000  -0.00002
  93        4PZ         0.00000   0.00000  -0.00007   0.00000   0.00000
                          81        82        83        84        85
  81        7D-2        0.00492
  82 4   H  1S         -0.00016   0.07880
  83        2S         -0.00055   0.08188   0.17185
  84        3S          0.00021   0.00890   0.02800   0.01053
  85        4PX        -0.00004   0.00000   0.00000   0.00000   0.00062
  86        4PY        -0.00004   0.00000   0.00000   0.00000   0.00000
  87        4PZ         0.00000   0.00000   0.00000   0.00000   0.00000
  88 5   H  1S         -0.00017  -0.00001  -0.00075  -0.00155   0.00000
  89        2S         -0.00061  -0.00075  -0.00649  -0.00628   0.00000
  90        3S          0.00022  -0.00155  -0.00630  -0.00432   0.00000
  91        4PX        -0.00003   0.00000   0.00000   0.00000   0.00000
  92        4PY        -0.00004   0.00001   0.00006  -0.00009   0.00000
  93        4PZ         0.00000   0.00000   0.00000   0.00000   0.00000
                          86        87        88        89        90
  86        4PY         0.00144
  87        4PZ         0.00000   0.00074
  88 5   H  1S          0.00001   0.00000   0.07873
  89        2S          0.00005   0.00000   0.08180   0.17173
  90        3S         -0.00010   0.00000   0.00880   0.02761   0.01043
  91        4PX         0.00000   0.00000   0.00000   0.00000   0.00000
  92        4PY         0.00004   0.00000   0.00000   0.00000   0.00000
  93        4PZ         0.00000   0.00001   0.00000   0.00000   0.00000
                          91        92        93
  91        4PX         0.00064
  92        4PY         0.00000   0.00142
  93        4PZ         0.00000   0.00000   0.00075
     Gross orbital populations:
                           1
   1 1   N  1S          1.09522
   2        2S          0.89615
   3        2PX         0.27994
   4        2PY         0.24106
   5        2PZ         0.24452
   6        3S          0.90161
   7        3PX         0.62121
   8        3PY         0.55523
   9        3PZ         0.57320
  10        4S          0.46611
  11        4PX         0.04491
  12        4PY         0.35438
  13        4PZ         0.38117
  14        5S         -0.09676
  15        5PX        -0.01031
  16        5PY         0.00958
  17        5PZ        -0.00739
  18        6D 0        0.00088
  19        6D+1        0.00517
  20        6D-1        0.00000
  21        6D+2        0.00249
  22        6D-2        0.00210
  23        7D 0        0.00215
  24        7D+1        0.08726
  25        7D-1        0.00000
  26        7D+2        0.00461
  27        7D-2        0.03639
  28 2   N  1S          1.09588
  29        2S          0.89539
  30        2PX         0.24612
  31        2PY         0.15474
  32        2PZ         0.29060
  33        3S          0.97906
  34        3PX         0.54356
  35        3PY         0.36505
  36        3PZ         0.62462
  37        4S          0.96448
  38        4PX         0.19945
  39        4PY         0.27332
  40        4PZ         0.46491
  41        5S         -0.04209
  42        5PX         0.05394
  43        5PY         0.00354
  44        5PZ         0.02998
  45        6D 0        0.00140
  46        6D+1        0.00207
  47        6D-1        0.00000
  48        6D+2        0.00415
  49        6D-2        0.00242
  50        7D 0        0.00333
  51        7D+1        0.02224
  52        7D-1        0.00000
  53        7D+2        0.01017
  54        7D-2        0.02349
  55 3   C  1S          1.10352
  56        2S          0.88511
  57        2PX         0.20044
  58        2PY         0.23299
  59        2PZ         0.22667
  60        3S          0.72857
  61        3PX         0.43902
  62        3PY         0.50934
  63        3PZ         0.52365
  64        4S          0.48850
  65        4PX         0.12638
  66        4PY         0.25399
  67        4PZ         0.45084
  68        5S          0.06189
  69        5PX         0.01462
  70        5PY         0.01872
  71        5PZ         0.04076
  72        6D 0        0.00226
  73        6D+1        0.00307
  74        6D-1        0.00002
  75        6D+2        0.00735
  76        6D-2        0.00463
  77        7D 0        0.00209
  78        7D+1        0.01753
  79        7D-1        0.00003
  80        7D+2        0.00854
  81        7D-2        0.03715
  82 4   H  1S          0.26974
  83        2S          0.50326
  84        3S          0.05277
  85        4PX         0.00605
  86        4PY         0.01421
  87        4PZ         0.00916
  88 5   H  1S          0.26954
  89        2S          0.50324
  90        3S          0.05212
  91        4PX         0.00630
  92        4PY         0.01406
  93        4PZ         0.00916
          Condensed to atoms (all electrons):
               1          2          3          4          5
     1  N    5.551291   0.694708   0.498428  -0.027072  -0.026503
     2  N    0.694708   6.622131  -0.077093  -0.014132  -0.013782
     3  C    0.498428  -0.077093   5.120948   0.422850   0.422582
     4  H   -0.027072  -0.014132   0.422850   0.501556  -0.028009
     5  H   -0.026503  -0.013782   0.422582  -0.028009   0.500120
 Mulliken charges:
               1
     1  N    0.309148
     2  N   -0.211832
     3  C   -0.387715
     4  H    0.144808
     5  H    0.145591
 Sum of Mulliken charges =   0.00000
 Mulliken charges with hydrogens summed into heavy atoms:
               1
     1  N    0.309148
     2  N   -0.211832
     3  C   -0.097316
 Electronic spatial extent (au):  <R**2>=            140.0861
 Charge=              0.0000 electrons
 Dipole moment (field-independent basis, Debye):
    X=             -2.1884    Y=             -0.0006    Z=              0.0814  Tot=              2.1900
 Quadrupole moment (field-independent basis, Debye-Ang):
   XX=            -18.3466   YY=            -15.7881   ZZ=            -19.3780
   XY=              0.0103   XZ=             -0.1645   YZ=              0.0000
 Traceless Quadrupole moment (field-independent basis, Debye-Ang):
   XX=             -0.5090   YY=              2.0495   ZZ=             -1.5405
   XY=              0.0103   XZ=             -0.1645   YZ=              0.0000
 Octapole moment (field-independent basis, Debye-Ang**2):
  XXX=             -7.6368  YYY=              0.0160  ZZZ=              0.1287  XYY=             -1.7096
  XXY=             -0.0424  XXZ=              0.3137  XZZ=              1.2891  YZZ=             -0.0003
  YYZ=              0.1076  XYZ=              0.0004
 Hexadecapole moment (field-independent basis, Debye-Ang**3):
 XXXX=           -147.1868 YYYY=            -20.8802 ZZZZ=            -21.1539 XXXY=              0.1143
 XXXZ=             -0.6323 YYYX=             -0.0120 YYYZ=              0.0006 ZZZX=             -0.2310
 ZZZY=              0.0000 XXYY=            -23.5012 XXZZ=            -31.9621 YYZZ=             -7.4306
 XXYZ=             -0.0021 YYXZ=             -0.1904 ZZXY=              0.0015
 N-N= 5.983136482303D+01 E-N=-4.661631501125D+02  KE= 1.478465838771D+02
 Orbital energies and kinetic energies (alpha):
                                 1                 2
   1         O               -14.497934         22.065033
   2         O               -14.431127         22.071132
   3         O               -10.243697         15.961950
   4         O                -1.089715          2.327500
   5         O                -0.869403          2.060546
   6         O                -0.590884          1.497712
   7         O                -0.528212          1.241980
   8         O                -0.474201          1.576213
   9         O                -0.462652          2.136194
  10         O                -0.395065          1.486176
  11         O                -0.243491          1.498855
  12         V                -0.073322          1.933962
  13         V                -0.008860          1.563733
  14         V                 0.011407          0.305932
  15         V                 0.050355          0.232160
  16         V                 0.050675          0.261646
  17         V                 0.080690          0.653509
  18         V                 0.108343          0.416855
  19         V                 0.138352          0.426560
  20         V                 0.144772          0.660489
  21         V                 0.148867          0.404265
  22         V                 0.188562          1.011323
  23         V                 0.214869          0.479673
  24         V                 0.221421          0.477464
  25         V                 0.224362          0.447312
  26         V                 0.233774          0.854193
  27         V                 0.256463          1.788647
  28         V                 0.298532          0.766950
  29         V                 0.382628          1.294703
  30         V                 0.510645          1.369946
  31         V                 0.512044          1.391660
  32         V                 0.548463          1.500450
  33         V                 0.560341          1.137918
  34         V                 0.644094          1.920903
  35         V                 0.669191          1.577465
  36         V                 0.759127          1.577585
  37         V                 0.764633          2.000061
  38         V                 0.772201          1.916155
  39         V                 0.779919          1.894733
  40         V                 0.796520          1.677750
  41         V                 0.862536          1.860530
  42         V                 0.866925          2.702349
  43         V                 0.870956          1.532147
  44         V                 0.875285          1.880377
  45         V                 0.966005          1.687610
  46         V                 0.988113          2.877967
  47         V                 1.005632          1.777555
  48         V                 1.142583          2.688608
  49         V                 1.235677          1.893219
  50         V                 1.253969          2.756315
  51         V                 1.267170          2.151608
  52         V                 1.294191          2.586201
  53         V                 1.359738          2.239117
  54         V                 1.399987          2.149092
  55         V                 1.683885          2.572173
  56         V                 1.688971          2.357292
  57         V                 1.801281          2.853545
  58         V                 1.893371          2.528186
  59         V                 1.942552          3.539345
  60         V                 2.091801          3.529540
  61         V                 2.115772          3.419649
  62         V                 2.340332          3.674300
  63         V                 2.353428          3.607655
  64         V                 2.570410          4.456627
  65         V                 2.649712          4.081026
  66         V                 2.812859          6.267020
  67         V                 2.864794          4.670448
  68         V                 3.210403          5.118940
  69         V                 3.256846          6.049712
  70         V                 3.393187          5.820226
  71         V                 3.437867          6.312026
  72         V                 3.552670          6.068704
  73         V                 3.812747          8.329068
  74         V                 3.847107          8.633456
  75         V                 3.968001          8.940235
  76         V                 3.972950          8.806443
  77         V                 3.974033          7.209195
  78         V                 4.122297          6.294841
  79         V                 4.417138          9.026396
  80         V                 4.658930          7.136885
  81         V                 4.662526          7.292447
  82         V                 4.690486          7.812994
  83         V                 4.792200          7.256469
  84         V                 4.810423          7.327170
  85         V                 4.855944          7.306392
  86         V                 4.922015          7.380559
  87         V                 5.130501          7.692934
  88         V                 5.237165          7.783887
  89         V                 5.278643          9.285884
  90         V                 5.877708          8.983364
  91         V                24.237124         60.529473
  92         V                35.420463         89.058216
  93         V                35.817431         88.976675
 Total kinetic energy from orbitals= 1.478465838771D+02
 1|1|UNPC-DESKTOP-KC5UJLK|SP|RAPFD|6-311+G(2d,p)|C1H2N2|23122|05-Feb-20
 22|0||# apfd/6-311+g(2d,p) pop=full geom=connectivity int=ultrafine||E
 nergy Calculation(GC)||0,1|N,0,0.12585619,-0.06685108,-0.00507818|N,0,
 1.34009887,-0.10982615,-0.00990373|C,0,-1.15199658,-0.02161901,0.|H,0,
 -1.68233161,0.0630274,-0.92552592|H,0,-1.6891043,0.01309349,0.9248399|
 |Version=IA32W-G09RevD.01|State=1-A|HF=-148.6460569|RMSD=3.192e-009|Di
 pole=-0.8589825,0.0669063,0.0046435|Quadrupole=-0.3896671,-1.1321596,1
 .5218267,-0.1529736,-0.0061329,-0.0719303|PG=C01 [X(C1H2N2)]||@


 Happiness is a conscious choice, not an automatic response.
 -- Mildred Barthel
 Job cpu time:       0 days  0 hours  0 minutes 15.0 seconds.
 File lengths (MBytes):  RWF=      5 Int=      0 D2E=      0 Chk=      1 Scr=      1
 Normal termination of Gaussian 09 at Sat Feb 05 16:06:01 2022.
