 Entering Link 1 = C:\G09W\l1.exe PID=      8036.
  
 Copyright (c) 1988,1990,1992,1993,1995,1998,2003,2009,2013,
            Gaussian, Inc.  All Rights Reserved.
  
 This is part of the Gaussian(R) 09 program.  It is based on
 the Gaussian(R) 03 system (copyright 2003, Gaussian, Inc.),
 the Gaussian(R) 98 system (copyright 1998, Gaussian, Inc.),
 the Gaussian(R) 94 system (copyright 1995, Gaussian, Inc.),
 the Gaussian 92(TM) system (copyright 1992, Gaussian, Inc.),
 the Gaussian 90(TM) system (copyright 1990, Gaussian, Inc.),
 the Gaussian 88(TM) system (copyright 1988, Gaussian, Inc.),
 the Gaussian 86(TM) system (copyright 1986, Carnegie Mellon
 University), and the Gaussian 82(TM) system (copyright 1983,
 Carnegie Mellon University). Gaussian is a federally registered
 trademark of Gaussian, Inc.
  
 This software contains proprietary and confidential information,
 including trade secrets, belonging to Gaussian, Inc.
  
 This software is provided under written license and may be
 used, copied, transmitted, or stored only in accord with that
 written license.
  
 The following legend is applicable only to US Government
 contracts under FAR:
  
                    RESTRICTED RIGHTS LEGEND
  
 Use, reproduction and disclosure by the US Government is
 subject to restrictions as set forth in subparagraphs (a)
 and (c) of the Commercial Computer Software - Restricted
 Rights clause in FAR 52.227-19.
  
 Gaussian, Inc.
 340 Quinnipiac St., Bldg. 40, Wallingford CT 06492
  
  
 ---------------------------------------------------------------
 Warning -- This program may not be used in any manner that
 competes with the business of Gaussian, Inc. or will provide
 assistance to any competitor of Gaussian, Inc.  The licensee
 of this program is prohibited from giving any competitor of
 Gaussian, Inc. access to this program.  By using this program,
 the user acknowledges that Gaussian, Inc. is engaged in the
 business of creating and licensing software in the field of
 computational chemistry and represents and warrants to the
 licensee that it is not a competitor of Gaussian, Inc. and that
 it will not use this program in any manner prohibited above.
 ---------------------------------------------------------------
  

 Cite this work as:
 Gaussian 09, Revision D.01,
 M. J. Frisch, G. W. Trucks, H. B. Schlegel, G. E. Scuseria, 
 M. A. Robb, J. R. Cheeseman, G. Scalmani, V. Barone, B. Mennucci, 
 G. A. Petersson, H. Nakatsuji, M. Caricato, X. Li, H. P. Hratchian, 
 A. F. Izmaylov, J. Bloino, G. Zheng, J. L. Sonnenberg, M. Hada, 
 M. Ehara, K. Toyota, R. Fukuda, J. Hasegawa, M. Ishida, T. Nakajima, 
 Y. Honda, O. Kitao, H. Nakai, T. Vreven, J. A. Montgomery, Jr., 
 J. E. Peralta, F. Ogliaro, M. Bearpark, J. J. Heyd, E. Brothers, 
 K. N. Kudin, V. N. Staroverov, T. Keith, R. Kobayashi, J. Normand, 
 K. Raghavachari, A. Rendell, J. C. Burant, S. S. Iyengar, J. Tomasi, 
 M. Cossi, N. Rega, J. M. Millam, M. Klene, J. E. Knox, J. B. Cross, 
 V. Bakken, C. Adamo, J. Jaramillo, R. Gomperts, R. E. Stratmann, 
 O. Yazyev, A. J. Austin, R. Cammi, C. Pomelli, J. W. Ochterski, 
 R. L. Martin, K. Morokuma, V. G. Zakrzewski, G. A. Voth, 
 P. Salvador, J. J. Dannenberg, S. Dapprich, A. D. Daniels, 
 O. Farkas, J. B. Foresman, J. V. Ortiz, J. Cioslowski, 
 and D. J. Fox, Gaussian, Inc., Wallingford CT, 2013.
 
 ******************************************
 Gaussian 09:  IA32W-G09RevD.01 24-Apr-2013
                22-Feb-2022 
 ******************************************
 %chk=D:\mindmap\gaussian\calculate\opt_freq\3OHN\3OHN.chk
 %nprocshared=4
 Will use up to    4 processors via shared memory.
 %mem=1GB
 ----------------------------------------------------------------
 # opt freq apfd/6-311+g(2d,p) scrf=(solvent=water) int=ultrafine
 ----------------------------------------------------------------
 1/14=-1,18=20,19=15,26=4,38=1/1,3;
 2/9=110,12=2,17=6,18=5,40=1/2;
 3/5=4,6=6,7=112,11=2,16=1,25=1,30=1,70=2201,71=1,72=1,74=-44,75=-5/1,2,3;
 4//1;
 5/5=2,38=5,53=1/2;
 6/7=2,8=2,9=2,10=2,28=1/1;
 7//1,2,3,16;
 1/14=-1,18=20,19=15,26=4/3(2);
 2/9=110/2;
 99//99;
 2/9=110/2;
 3/5=4,6=6,7=112,11=2,16=1,25=1,30=1,70=2205,71=1,72=1,74=-44,75=-5/1,2,3;
 4/5=5,16=3,69=1/1;
 5/5=2,38=5,53=1/2;
 7//1,2,3,16;
 1/14=-1,18=20,19=15,26=4/3(-5);
 2/9=110/2;
 6/7=2,8=2,9=2,10=2,19=2,28=1/1;
 99/9=1/99;
 ---------------
 opt freq(WATER)
 ---------------
 Symbolic Z-matrix:
 Charge =  0 Multiplicity = 1
 C                    -9.23561   0.00139  -2.91687 
 C                    -9.70482   1.44571  -3.02046 
 H                    -9.62758  -0.60105  -3.77438 
 H                    -9.62573  -0.46902  -1.97937 
 H                    -8.4336    2.91641  -4.00779 
 H                    -10.3572   1.70752  -2.1498 
 H                    -10.31657   1.59334  -3.94567 
 C                    -7.24498   1.44926  -2.91687 
 H                    -6.58356   1.61771  -3.74092 
 H                    -6.73604   1.66595  -2.00095 
 C                    -7.71376   0.00139  -2.91687 
 H                    -7.35076  -0.49847  -3.79052 
 N                    -8.47272   2.33883  -3.05006 
 O                    -7.22763  -0.66592  -1.74928 
 H                    -6.68315  -1.41233  -2.0101 
 

 GradGradGradGradGradGradGradGradGradGradGradGradGradGradGradGradGradGrad
 Berny optimization.
 Initialization pass.
                           ----------------------------
                           !    Initial Parameters    !
                           ! (Angstroms and Degrees)  !
 --------------------------                            --------------------------
 ! Name  Definition              Value          Derivative Info.                !
 --------------------------------------------------------------------------------
 ! R1    R(1,2)                  1.5222         estimate D2E/DX2                !
 ! R2    R(1,3)                  1.1189         estimate D2E/DX2                !
 ! R3    R(1,4)                  1.1191         estimate D2E/DX2                !
 ! R4    R(1,11)                 1.5219         estimate D2E/DX2                !
 ! R5    R(2,6)                  1.119          estimate D2E/DX2                !
 ! R6    R(2,7)                  1.1189         estimate D2E/DX2                !
 ! R7    R(2,13)                 1.522          estimate D2E/DX2                !
 ! R8    R(5,13)                 1.1191         estimate D2E/DX2                !
 ! R9    R(8,9)                  1.07           estimate D2E/DX2                !
 ! R10   R(8,10)                 1.07           estimate D2E/DX2                !
 ! R11   R(8,11)                 1.5219         estimate D2E/DX2                !
 ! R12   R(8,13)                 1.522          estimate D2E/DX2                !
 ! R13   R(11,12)                1.07           estimate D2E/DX2                !
 ! R14   R(11,14)                1.43           estimate D2E/DX2                !
 ! R15   R(14,15)                0.96           estimate D2E/DX2                !
 ! A1    A(2,1,3)              110.5339         estimate D2E/DX2                !
 ! A2    A(2,1,4)              110.3901         estimate D2E/DX2                !
 ! A3    A(2,1,11)             107.9539         estimate D2E/DX2                !
 ! A4    A(3,1,4)              107.0727         estimate D2E/DX2                !
 ! A5    A(3,1,11)             110.5067         estimate D2E/DX2                !
 ! A6    A(4,1,11)             110.4015         estimate D2E/DX2                !
 ! A7    A(1,2,6)              110.411          estimate D2E/DX2                !
 ! A8    A(1,2,7)              110.4863         estimate D2E/DX2                !
 ! A9    A(1,2,13)             107.9735         estimate D2E/DX2                !
 ! A10   A(6,2,7)              107.0824         estimate D2E/DX2                !
 ! A11   A(6,2,13)             110.474          estimate D2E/DX2                !
 ! A12   A(7,2,13)             110.431          estimate D2E/DX2                !
 ! A13   A(9,8,10)             109.4712         estimate D2E/DX2                !
 ! A14   A(9,8,11)             109.8881         estimate D2E/DX2                !
 ! A15   A(9,8,13)             109.8303         estimate D2E/DX2                !
 ! A16   A(10,8,11)            109.8273         estimate D2E/DX2                !
 ! A17   A(10,8,13)            109.891          estimate D2E/DX2                !
 ! A18   A(11,8,13)            107.9138         estimate D2E/DX2                !
 ! A19   A(1,11,8)             107.9403         estimate D2E/DX2                !
 ! A20   A(1,11,12)            109.8312         estimate D2E/DX2                !
 ! A21   A(1,11,14)            109.8738         estimate D2E/DX2                !
 ! A22   A(8,11,12)            109.8739         estimate D2E/DX2                !
 ! A23   A(8,11,14)            109.8313         estimate D2E/DX2                !
 ! A24   A(12,11,14)           109.4712         estimate D2E/DX2                !
 ! A25   A(2,13,5)             110.3522         estimate D2E/DX2                !
 ! A26   A(2,13,8)             107.9592         estimate D2E/DX2                !
 ! A27   A(5,13,8)             110.3864         estimate D2E/DX2                !
 ! A28   A(11,14,15)           109.5            estimate D2E/DX2                !
 ! D1    D(3,1,2,6)            116.7997         estimate D2E/DX2                !
 ! D2    D(3,1,2,7)             -1.4694         estimate D2E/DX2                !
 ! D3    D(3,1,2,13)          -122.3312         estimate D2E/DX2                !
 ! D4    D(4,1,2,6)             -1.474          estimate D2E/DX2                !
 ! D5    D(4,1,2,7)           -119.7431         estimate D2E/DX2                !
 ! D6    D(4,1,2,13)           119.3952         estimate D2E/DX2                !
 ! D7    D(11,1,2,6)          -122.2296         estimate D2E/DX2                !
 ! D8    D(11,1,2,7)           119.5013         estimate D2E/DX2                !
 ! D9    D(11,1,2,13)           -1.3604         estimate D2E/DX2                !
 ! D10   D(2,1,11,8)             4.1024         estimate D2E/DX2                !
 ! D11   D(2,1,11,12)         -115.674          estimate D2E/DX2                !
 ! D12   D(2,1,11,14)          123.8518         estimate D2E/DX2                !
 ! D13   D(3,1,11,8)           125.0901         estimate D2E/DX2                !
 ! D14   D(3,1,11,12)            5.3137         estimate D2E/DX2                !
 ! D15   D(3,1,11,14)         -115.1605         estimate D2E/DX2                !
 ! D16   D(4,1,11,8)          -116.6461         estimate D2E/DX2                !
 ! D17   D(4,1,11,12)          123.5775         estimate D2E/DX2                !
 ! D18   D(4,1,11,14)            3.1033         estimate D2E/DX2                !
 ! D19   D(1,2,13,5)           118.8171         estimate D2E/DX2                !
 ! D20   D(1,2,13,8)            -1.9007         estimate D2E/DX2                !
 ! D21   D(6,2,13,5)          -120.353          estimate D2E/DX2                !
 ! D22   D(6,2,13,8)           118.9291         estimate D2E/DX2                !
 ! D23   D(7,2,13,5)            -2.0791         estimate D2E/DX2                !
 ! D24   D(7,2,13,8)          -122.7969         estimate D2E/DX2                !
 ! D25   D(9,8,11,1)          -125.0172         estimate D2E/DX2                !
 ! D26   D(9,8,11,12)           -5.2679         estimate D2E/DX2                !
 ! D27   D(9,8,11,14)          115.2065         estimate D2E/DX2                !
 ! D28   D(10,8,11,1)          114.5021         estimate D2E/DX2                !
 ! D29   D(10,8,11,12)        -125.7486         estimate D2E/DX2                !
 ! D30   D(10,8,11,14)          -5.2742         estimate D2E/DX2                !
 ! D31   D(13,8,11,1)           -5.2768         estimate D2E/DX2                !
 ! D32   D(13,8,11,12)         114.4726         estimate D2E/DX2                !
 ! D33   D(13,8,11,14)        -125.0531         estimate D2E/DX2                !
 ! D34   D(9,8,13,2)           124.2124         estimate D2E/DX2                !
 ! D35   D(9,8,13,5)             3.516          estimate D2E/DX2                !
 ! D36   D(10,8,13,2)         -115.3031         estimate D2E/DX2                !
 ! D37   D(10,8,13,5)          124.0005         estimate D2E/DX2                !
 ! D38   D(11,8,13,2)            4.4355         estimate D2E/DX2                !
 ! D39   D(11,8,13,5)         -116.2609         estimate D2E/DX2                !
 ! D40   D(1,11,14,15)         120.782          estimate D2E/DX2                !
 ! D41   D(8,11,14,15)        -120.6275         estimate D2E/DX2                !
 ! D42   D(12,11,14,15)          0.0903         estimate D2E/DX2                !
 --------------------------------------------------------------------------------
 Trust Radius=3.00D-01 FncErr=1.00D-07 GrdErr=1.00D-06
 Number of steps in this run=     95 maximum allowed number of steps=    100.
 GradGradGradGradGradGradGradGradGradGradGradGradGradGradGradGradGradGrad

                          Input orientation:                          
 ---------------------------------------------------------------------
 Center     Atomic      Atomic             Coordinates (Angstroms)
 Number     Number       Type             X           Y           Z
 ---------------------------------------------------------------------
      1          6           0       -9.235614    0.001393   -2.916873
      2          6           0       -9.704820    1.445713   -3.020463
      3          1           0       -9.627576   -0.601052   -3.774381
      4          1           0       -9.625729   -0.469018   -1.979369
      5          1           0       -8.433602    2.916411   -4.007795
      6          1           0      -10.357198    1.707515   -2.149799
      7          1           0      -10.316566    1.593335   -3.945666
      8          6           0       -7.244983    1.449258   -2.916873
      9          1           0       -6.583564    1.617711   -3.740917
     10          1           0       -6.736038    1.665955   -2.000948
     11          6           0       -7.713756    0.001393   -2.916873
     12          1           0       -7.350758   -0.498473   -3.790524
     13          7           0       -8.472723    2.338826   -3.050059
     14          8           0       -7.227627   -0.665924   -1.749283
     15          1           0       -6.683148   -1.412328   -2.010098
 ---------------------------------------------------------------------
                    Distance matrix (angstroms):
                    1          2          3          4          5
     1  C    0.000000
     2  C    1.522152   0.000000
     3  H    1.118881   2.182569   0.000000
     4  H    1.119102   2.180900   1.799862   0.000000
     5  H    3.214135   2.180315   3.721908   4.122719   0.000000
     6  H    2.181102   1.119014   2.915664   2.302475   2.934928
     7  H    2.182006   1.118940   2.306378   2.932044   2.302161
     8  C    2.461488   2.462020   3.258196   3.197913   2.180703
     9  H    3.213238   3.207939   3.766966   4.088063   2.276068
    10  H    3.139676   3.146678   4.079874   3.592894   2.910807
    11  C    1.521858   2.461936   2.181964   2.180789   3.194623
    12  H    2.136777   3.148724   2.279185   2.908031   3.589037
    13  N    2.462384   1.522035   3.240557   3.218662   1.119104
    14  O    2.416731   3.494481   3.140857   2.417148   4.403224
    15  H    3.055475   4.280156   3.527112   3.090236   5.078667
                    6          7          8          9         10
     6  H    0.000000
     7  H    1.799952   0.000000
     8  C    3.215740   3.242498   0.000000
     9  H    4.096344   3.738692   1.070000   0.000000
    10  H    3.624456   4.075215   1.070000   1.747303   0.000000
    11  C    3.238370   3.219831   1.521861   2.137490   2.136730
    12  H    4.073947   3.632595   2.137314   2.251506   2.874928
    13  N    2.181804   2.181198   1.521977   2.136870   2.137630
    14  O    3.948144   4.412470   2.416105   3.097808   2.396384
    15  H    4.821989   5.097270   3.053944   3.490958   3.078751
                   11         12         13         14         15
    11  C    0.000000
    12  H    1.070000   0.000000
    13  N    2.461171   3.139643   0.000000
    14  O    1.430000   2.051796   3.502971   0.000000
    15  H    1.970533   2.109680   4.284303   0.960000   0.000000
 Stoichiometry    C4H9NO
 Framework group  C1[X(C4H9NO)]
 Deg. of freedom    39
 Full point group                 C1      NOp   1
 Largest Abelian subgroup         C1      NOp   1
 Largest concise Abelian subgroup C1      NOp   1
                         Standard orientation:                         
 ---------------------------------------------------------------------
 Center     Atomic      Atomic             Coordinates (Angstroms)
 Number     Number       Type             X           Y           Z
 ---------------------------------------------------------------------
      1          6           0        0.059354   -1.212625    0.186955
      2          6           0        1.452642   -0.727910   -0.188207
      3          1           0        0.098791   -1.844283    1.109639
      4          1           0       -0.364806   -1.849731   -0.629484
      5          1           0        2.140246    1.213054    0.528474
      6          1           0        1.753359   -1.138208   -1.184910
      7          1           0        2.206240   -1.087991    0.556412
      8          6           0        0.006116    1.246024    0.081410
      9          1           0        0.010473    1.916624    0.915182
     10          1           0       -0.410271    1.740068   -0.771492
     11          6           0       -0.817168    0.010356    0.415162
     12          1           0       -1.130040    0.047014    1.437741
     13          7           0        1.426665    0.793468   -0.224614
     14          8           0       -1.966756   -0.050336   -0.433167
     15          1           0       -2.762265   -0.043208    0.104154
 ---------------------------------------------------------------------
 Rotational constants (GHZ):      6.0977565      3.1684149      2.3532999
 Standard basis: 6-311+G(2d,p) (5D, 7F)
 There are   228 symmetry adapted cartesian basis functions of A   symmetry.
 There are   216 symmetry adapted basis functions of A   symmetry.
   216 basis functions,   324 primitive gaussians,   228 cartesian basis functions
    24 alpha electrons       24 beta electrons
       nuclear repulsion energy       254.2818201749 Hartrees.
 NAtoms=   15 NActive=   15 NUniq=   15 SFac= 1.00D+00 NAtFMM=   60 NAOKFM=F Big=F
 Integral buffers will be    262144 words long.
 Raffenetti 2 integral format.
 Two-electron integral symmetry is turned on.
 R6APFD:  NTU= -4 IXU= 1 FactS= 1.050
 Nuclear repulsion after empirical dispersion term =      254.2753943154 Hartrees.
 ------------------------------------------------------------------------------
 Polarizable Continuum Model (PCM)
 =================================
 Model                : PCM (using non-symmetric T matrix).
 Atomic radii         : UFF (Universal Force Field).
 Polarization charges : Total charges.
 Charge compensation  : None.
 Solution method      : On-the-fly selection.
 Cavity type          : Scaled VdW (van der Waals Surface) (Alpha=1.100).
 Cavity algorithm     : GePol (No added spheres)
                        Default sphere list used, NSphG=   15.
                        Lebedev-Laikov grids with approx.  5.0 points / Ang**2.
                        Smoothing algorithm: Karplus/York (Gamma=1.0000).
                        Polarization charges: spherical gaussians, with
                                              point-specific exponents (IZeta= 3).
                        Self-potential: point-specific (ISelfS= 7).
                        Self-field    : sphere-specific E.n sum rule (ISelfD= 2).
 1st derivatives      : Analytical E(r).r(x)/FMM algorithm (CHGder, D1EAlg=3).
                        Cavity 1st derivative terms included.
 Solvent              : Water, Eps=  78.355300 Eps(inf)=   1.777849
 ------------------------------------------------------------------------------
 Spheres list:
 ISph  on   Nord     Re0    Alpha      Xe            Ye            Ze
    1   C      1    1.9255  1.100      0.059354     -1.212625      0.186955
    2   C      2    1.9255  1.100      1.452642     -0.727910     -0.188207
    3   H      3    1.4430  1.100      0.098791     -1.844283      1.109639
    4   H      4    1.4430  1.100     -0.364806     -1.849731     -0.629484
    5   H      5    1.4430  1.100      2.140246      1.213054      0.528474
    6   H      6    1.4430  1.100      1.753359     -1.138208     -1.184910
    7   H      7    1.4430  1.100      2.206240     -1.087991      0.556412
    8   C      8    1.9255  1.100      0.006116      1.246024      0.081410
    9   H      9    1.4430  1.100      0.010473      1.916624      0.915182
   10   H     10    1.4430  1.100     -0.410271      1.740068     -0.771492
   11   C     11    1.9255  1.100     -0.817168      0.010356      0.415162
   12   H     12    1.4430  1.100     -1.130040      0.047014      1.437741
   13   N     13    1.8300  1.100      1.426665      0.793468     -0.224614
   14   O     14    1.7500  1.100     -1.966756     -0.050336     -0.433167
   15   H     15    1.4430  1.100     -2.762265     -0.043208      0.104154
 ------------------------------------------------------------------------------
 One-electron integrals computed using PRISM.
 NBasis=   216 RedAO= T EigKep=  8.93D-06  NBF=   216
 NBsUse=   216 1.00D-06 EigRej= -1.00D+00 NBFU=   216
 ExpMin= 4.38D-02 ExpMax= 8.59D+03 ExpMxC= 1.30D+03 IAcc=3 IRadAn=         5 AccDes= 0.00D+00
 Harris functional with IExCor= 3731 and IRadAn=       5 diagonalized for initial guess.
 HarFok:  IExCor= 3731 AccDes= 0.00D+00 IRadAn=         5 IDoV= 1 UseB2=F ITyADJ=14
 ICtDFT=  3500011 ScaDFX=  1.000000  1.000000  1.000000  1.000000
 FoFCou: FMM=F IPFlag=           0 FMFlag=      100000 FMFlg1=           0
         NFxFlg=           0 DoJE=T BraDBF=F KetDBF=T FulRan=T
         wScrn=  0.000000 ICntrl=     500 IOpCl=  0 I1Cent=   200000004 NGrid=           0
         NMat0=    1 NMatS0=      1 NMatT0=    0 NMatD0=    1 NMtDS0=    0 NMtDT0=    0
 Petite list used in FoFCou.
 Requested convergence on RMS density matrix=1.00D-08 within 128 cycles.
 Requested convergence on MAX density matrix=1.00D-06.
 Requested convergence on             energy=1.00D-06.
 No special actions if energy rises.
 Inv3:  Mode=1 IEnd=     4177200.
 Iteration    1 A*A^-1 deviation from unit magnitude is 2.22D-15 for    489.
 Iteration    1 A*A^-1 deviation from orthogonality  is 2.21D-15 for    980    608.
 Iteration    1 A^-1*A deviation from unit magnitude is 2.11D-15 for    351.
 Iteration    1 A^-1*A deviation from orthogonality  is 2.83D-12 for    998    979.
 Error on total polarization charges =  0.01233
 SCF Done:  E(RAPFD) =  -287.644301477     A.U. after   11 cycles
            NFock= 11  Conv=0.77D-08     -V/T= 2.0051

 **********************************************************************

            Population analysis using the SCF density.

 **********************************************************************

 Orbital symmetries:
       Occupied  (A) (A) (A) (A) (A) (A) (A) (A) (A) (A) (A) (A)
                 (A) (A) (A) (A) (A) (A) (A) (A) (A) (A) (A) (A)
       Virtual   (A) (A) (A) (A) (A) (A) (A) (A) (A) (A) (A) (A)
                 (A) (A) (A) (A) (A) (A) (A) (A) (A) (A) (A) (A)
                 (A) (A) (A) (A) (A) (A) (A) (A) (A) (A) (A) (A)
                 (A) (A) (A) (A) (A) (A) (A) (A) (A) (A) (A) (A)
                 (A) (A) (A) (A) (A) (A) (A) (A) (A) (A) (A) (A)
                 (A) (A) (A) (A) (A) (A) (A) (A) (A) (A) (A) (A)
                 (A) (A) (A) (A) (A) (A) (A) (A) (A) (A) (A) (A)
                 (A) (A) (A) (A) (A) (A) (A) (A) (A) (A) (A) (A)
                 (A) (A) (A) (A) (A) (A) (A) (A) (A) (A) (A) (A)
                 (A) (A) (A) (A) (A) (A) (A) (A) (A) (A) (A) (A)
                 (A) (A) (A) (A) (A) (A) (A) (A) (A) (A) (A) (A)
                 (A) (A) (A) (A) (A) (A) (A) (A) (A) (A) (A) (A)
                 (A) (A) (A) (A) (A) (A) (A) (A) (A) (A) (A) (A)
                 (A) (A) (A) (A) (A) (A) (A) (A) (A) (A) (A) (A)
                 (A) (A) (A) (A) (A) (A) (A) (A) (A) (A) (A) (A)
                 (A) (A) (A) (A) (A) (A) (A) (A) (A) (A) (A) (A)
 The electronic state is 1-A.
 Alpha  occ. eigenvalues --  -19.16906 -14.34662 -10.24344 -10.21986 -10.20829
 Alpha  occ. eigenvalues --  -10.19105  -1.04584  -0.90427  -0.76617  -0.73793
 Alpha  occ. eigenvalues --   -0.60557  -0.58481  -0.54955  -0.50455  -0.45669
 Alpha  occ. eigenvalues --   -0.43072  -0.40664  -0.39946  -0.37911  -0.37575
 Alpha  occ. eigenvalues --   -0.35124  -0.32585  -0.28463  -0.23562
 Alpha virt. eigenvalues --    0.00599   0.02274   0.03819   0.04369   0.05811
 Alpha virt. eigenvalues --    0.06005   0.06641   0.07463   0.08140   0.10007
 Alpha virt. eigenvalues --    0.11106   0.11908   0.12163   0.12985   0.13444
 Alpha virt. eigenvalues --    0.14709   0.15951   0.16164   0.17397   0.19306
 Alpha virt. eigenvalues --    0.19857   0.20413   0.21950   0.22452   0.23293
 Alpha virt. eigenvalues --    0.23624   0.25110   0.25591   0.26352   0.27200
 Alpha virt. eigenvalues --    0.28573   0.29407   0.29943   0.31548   0.31613
 Alpha virt. eigenvalues --    0.34088   0.35195   0.35756   0.39979   0.43548
 Alpha virt. eigenvalues --    0.45211   0.46596   0.48105   0.49588   0.50656
 Alpha virt. eigenvalues --    0.51288   0.52743   0.54351   0.56853   0.57596
 Alpha virt. eigenvalues --    0.59647   0.60011   0.62594   0.63123   0.65397
 Alpha virt. eigenvalues --    0.67911   0.69073   0.70207   0.71243   0.71575
 Alpha virt. eigenvalues --    0.73453   0.74578   0.80011   0.82980   0.86612
 Alpha virt. eigenvalues --    0.89674   0.94036   0.95022   0.98450   1.00870
 Alpha virt. eigenvalues --    1.02866   1.03977   1.07189   1.08681   1.10621
 Alpha virt. eigenvalues --    1.12923   1.16926   1.18929   1.20547   1.21878
 Alpha virt. eigenvalues --    1.22423   1.24891   1.25414   1.27395   1.28968
 Alpha virt. eigenvalues --    1.31549   1.32418   1.36700   1.37256   1.41355
 Alpha virt. eigenvalues --    1.44947   1.47736   1.48085   1.51568   1.53204
 Alpha virt. eigenvalues --    1.62980   1.67283   1.72156   1.74275   1.77209
 Alpha virt. eigenvalues --    1.78913   1.83511   1.85377   1.86200   1.88638
 Alpha virt. eigenvalues --    1.90748   1.94939   1.96356   1.97357   2.01981
 Alpha virt. eigenvalues --    2.04619   2.05104   2.11515   2.13329   2.16676
 Alpha virt. eigenvalues --    2.20101   2.28320   2.29507   2.31139   2.32699
 Alpha virt. eigenvalues --    2.35410   2.35862   2.39481   2.44313   2.50543
 Alpha virt. eigenvalues --    2.54859   2.56141   2.66525   2.70894   2.72699
 Alpha virt. eigenvalues --    2.73835   2.78378   2.79832   2.81841   2.84263
 Alpha virt. eigenvalues --    2.88753   2.93706   2.95235   3.00555   3.02579
 Alpha virt. eigenvalues --    3.11953   3.21959   3.25691   3.37365   3.38467
 Alpha virt. eigenvalues --    3.41681   3.45619   3.47416   3.49721   3.52856
 Alpha virt. eigenvalues --    3.53852   3.55643   3.57691   3.59249   3.60832
 Alpha virt. eigenvalues --    3.62836   3.64852   3.72232   3.80389   3.81267
 Alpha virt. eigenvalues --    3.85423   3.93907   3.94169   4.01202   4.13734
 Alpha virt. eigenvalues --    4.23033   4.35221   4.37337   4.41087   4.46198
 Alpha virt. eigenvalues --    4.59703   4.85611   4.88686   5.09627   5.15851
 Alpha virt. eigenvalues --    5.22523   5.31357   5.34266   5.37593   5.47246
 Alpha virt. eigenvalues --    5.89014   6.89945   7.04500   7.06524   7.17867
 Alpha virt. eigenvalues --    7.36188  23.91461  23.95434  24.04467  24.17881
 Alpha virt. eigenvalues --   35.63425  50.07376
          Condensed to atoms (all electrons):
               1          2          3          4          5          6
     1  C    6.691850  -0.385017   0.425763   0.468614  -0.002874  -0.085367
     2  C   -0.385017   5.555671  -0.056150  -0.044407  -0.018564   0.477772
     3  H    0.425763  -0.056150   0.564067  -0.039244   0.000290   0.006857
     4  H    0.468614  -0.044407  -0.039244   0.544152  -0.000473  -0.012794
     5  H   -0.002874  -0.018564   0.000290  -0.000473   0.473376   0.004602
     6  H   -0.085367   0.477772   0.006857  -0.012794   0.004602   0.592249
     7  H   -0.034503   0.418063  -0.016010   0.005125  -0.012484  -0.052489
     8  C    0.308718  -0.260907   0.016279   0.006233  -0.009827   0.014688
     9  H    0.017190  -0.009439  -0.000294  -0.000267  -0.011646  -0.000856
    10  H    0.001471   0.005939  -0.000056  -0.000016   0.004340   0.001536
    11  C   -0.845328   0.309562  -0.040789  -0.081321  -0.007270  -0.010118
    12  H   -0.076308   0.017526  -0.013585   0.005747  -0.000315  -0.000244
    13  N   -0.025921   0.208166   0.004905   0.008830   0.339245  -0.063846
    14  O   -0.200572   0.027397   0.007472  -0.006957  -0.000422   0.000132
    15  H    0.014755  -0.003028  -0.000179   0.000326   0.000003   0.000005
               7          8          9         10         11         12
     1  C   -0.034503   0.308718   0.017190   0.001471  -0.845328  -0.076308
     2  C    0.418063  -0.260907  -0.009439   0.005939   0.309562   0.017526
     3  H   -0.016010   0.016279  -0.000294  -0.000056  -0.040789  -0.013585
     4  H    0.005125   0.006233  -0.000267  -0.000016  -0.081321   0.005747
     5  H   -0.012484  -0.009827  -0.011646   0.004340  -0.007270  -0.000315
     6  H   -0.052489   0.014688  -0.000856   0.001536  -0.010118  -0.000244
     7  H    0.589783  -0.025031   0.001139  -0.000957   0.034413  -0.000200
     8  C   -0.025031   5.827147   0.383264   0.511099  -0.545432  -0.073165
     9  H    0.001139   0.383264   0.570282  -0.047466   0.007307  -0.013480
    10  H   -0.000957   0.511099  -0.047466   0.561393  -0.118990   0.006407
    11  C    0.034413  -0.545432   0.007307  -0.118990   6.373492   0.500735
    12  H   -0.000200  -0.073165  -0.013480   0.006407   0.500735   0.576211
    13  N   -0.038313   0.229243  -0.038450  -0.057701  -0.091758   0.010458
    14  O   -0.000793  -0.142132   0.005033   0.000054   0.391015  -0.047422
    15  H    0.000015   0.013565  -0.000320  -0.000117  -0.024312  -0.009178
              13         14         15
     1  C   -0.025921  -0.200572   0.014755
     2  C    0.208166   0.027397  -0.003028
     3  H    0.004905   0.007472  -0.000179
     4  H    0.008830  -0.006957   0.000326
     5  H    0.339245  -0.000422   0.000003
     6  H   -0.063846   0.000132   0.000005
     7  H   -0.038313  -0.000793   0.000015
     8  C    0.229243  -0.142132   0.013565
     9  H   -0.038450   0.005033  -0.000320
    10  H   -0.057701   0.000054  -0.000117
    11  C   -0.091758   0.391015  -0.024312
    12  H    0.010458  -0.047422  -0.009178
    13  N    6.900424   0.005339   0.000421
    14  O    0.005339   8.143333   0.289659
    15  H    0.000421   0.289659   0.413353
 Mulliken charges:
               1
     1  C   -0.272472
     2  C   -0.242585
     3  H    0.140674
     4  H    0.146454
     5  H    0.242019
     6  H    0.127874
     7  H    0.132242
     8  C   -0.253740
     9  H    0.138004
    10  H    0.133066
    11  C    0.148795
    12  H    0.116815
    13  N   -0.391043
    14  O   -0.471135
    15  H    0.305033
 Sum of Mulliken charges =   0.00000
 Mulliken charges with hydrogens summed into heavy atoms:
               1
     1  C    0.014656
     2  C    0.017531
     8  C    0.017329
    11  C    0.265610
    13  N   -0.149024
    14  O   -0.166102
 Electronic spatial extent (au):  <R**2>=            572.8150
 Charge=              0.0000 electrons
 Dipole moment (field-independent basis, Debye):
    X=             -0.6551    Y=             -0.5376    Z=              3.8455  Tot=              3.9378
 Quadrupole moment (field-independent basis, Debye-Ang):
   XX=            -35.0878   YY=            -37.5428   ZZ=            -38.2093
   XY=             -1.4740   XZ=             -0.7494   YZ=              2.2882
 Traceless Quadrupole moment (field-independent basis, Debye-Ang):
   XX=              1.8588   YY=             -0.5962   ZZ=             -1.2627
   XY=             -1.4740   XZ=             -0.7494   YZ=              2.2882
 Octapole moment (field-independent basis, Debye-Ang**2):
  XXX=            -21.6553  YYY=              1.6802  ZZZ=              4.0134  XYY=             -1.4043
  XXY=             -0.6273  XXZ=             16.4830  XZZ=             -2.0811  YZZ=             -1.1288
  YYZ=              3.4023  XYZ=              4.2870
 Hexadecapole moment (field-independent basis, Debye-Ang**3):
 XXXX=           -339.2676 YYYY=           -251.2853 ZZZZ=            -86.3241 XXXY=              2.8991
 XXXZ=             -0.7447 YYYX=              0.9726 YYYZ=              5.7623 ZZZX=              1.5135
 ZZZY=              3.2093 XXYY=           -113.1643 XXZZ=            -87.5569 YYZZ=            -53.1263
 XXYZ=              8.3203 YYXZ=              6.8882 ZZXY=             -2.6181
 N-N= 2.542753943154D+02 E-N=-1.180217080801D+03  KE= 2.861811505808D+02
 R6APFD:  NTU= -4 IXU= 1 FactS= 1.050
 D1PCM: PCM CHGder 1st derivatives, ID1Alg=3 FixD1E=F DoIter=F DoCFld=F I1PDM=0.
 Calling FoFJK, ICntrl=      2127 FMM=F ISym2X=0 I1Cent= 0 IOpClX= 0 NMat=1 NMatS=1 NMatT=0.
 ***** Axes restored to original set *****
 -------------------------------------------------------------------
 Center     Atomic                   Forces (Hartrees/Bohr)
 Number     Number              X              Y              Z
 -------------------------------------------------------------------
      1        6          -0.019035346   -0.013253068   -0.001980971
      2        6          -0.001596155    0.020874691   -0.007493540
      3        1           0.005117439    0.007245041    0.013053812
      4        1           0.008749072    0.004749845   -0.013750835
      5        1          -0.002572851   -0.038678032    0.054911765
      6        1           0.010489872   -0.000179692   -0.011583342
      7        1           0.008496158    0.001299090    0.013673525
      8        6          -0.038713328    0.015645205   -0.011801935
      9        1           0.010888002    0.005407837   -0.009496636
     10        1           0.006612840    0.002736250    0.013194294
     11        6          -0.002041837   -0.001499417    0.017465584
     12        1           0.006622266   -0.008553952   -0.011107019
     13        7           0.001969967    0.008709403   -0.046554199
     14        8           0.005266465   -0.005019338    0.002415495
     15        1          -0.000252564    0.000516137   -0.000945999
 -------------------------------------------------------------------
 Cartesian Forces:  Max     0.054911765 RMS     0.016194354

 GradGradGradGradGradGradGradGradGradGradGradGradGradGradGradGradGradGrad
 Berny optimization.
 FormGI is forming the generalized inverse of G from B-inverse, IUseBI=4.
 Internal  Forces:  Max     0.067043632 RMS     0.009655158
 Search for a local minimum.
 Step number   1 out of a maximum of   95
 All quantities printed in internal units (Hartrees-Bohrs-Radians)
 Mixed Optimization -- RFO/linear search
 Second derivative matrix not updated -- first step.
 ITU=  0
     Eigenvalues ---    0.00316   0.00464   0.01295   0.01922   0.02353
     Eigenvalues ---    0.03516   0.04455   0.04668   0.05121   0.05586
     Eigenvalues ---    0.05839   0.05944   0.05995   0.07081   0.07633
     Eigenvalues ---    0.08491   0.08574   0.09323   0.10269   0.11507
     Eigenvalues ---    0.14300   0.16000   0.20873   0.22325   0.28366
     Eigenvalues ---    0.28647   0.30166   0.30168   0.30180   0.31655
     Eigenvalues ---    0.31655   0.31664   0.31672   0.31678   0.37230
     Eigenvalues ---    0.37230   0.37230   0.40989   0.55473
 RFO step:  Lambda=-2.44753792D-02 EMin= 3.15771378D-03
 Linear search not attempted -- first point.
 Iteration  1 RMS(Cart)=  0.03940790 RMS(Int)=  0.00105463
 Iteration  2 RMS(Cart)=  0.00089404 RMS(Int)=  0.00014932
 Iteration  3 RMS(Cart)=  0.00000164 RMS(Int)=  0.00014931
 Iteration  4 RMS(Cart)=  0.00000000 RMS(Int)=  0.00014931
 Variable       Old X    -DE/DX   Delta X   Delta X   Delta X     New X
                                 (Linear)    (Quad)   (Total)
    R1        2.87645   0.00650   0.00000   0.02072   0.02060   2.89705
    R2        2.11438  -0.01570   0.00000  -0.04599  -0.04599   2.06838
    R3        2.11480  -0.01657   0.00000  -0.04858  -0.04858   2.06621
    R4        2.87589   0.00640   0.00000   0.02164   0.02165   2.89755
    R5        2.11463  -0.01518   0.00000  -0.04449  -0.04449   2.07014
    R6        2.11449  -0.01577   0.00000  -0.04623  -0.04623   2.06826
    R7        2.87623  -0.02433   0.00000  -0.07614  -0.07622   2.80000
    R8        2.11480  -0.06704   0.00000  -0.19660  -0.19660   1.91820
    R9        2.02201   0.01489   0.00000   0.03753   0.03753   2.05954
   R10        2.02201   0.01500   0.00000   0.03780   0.03780   2.05980
   R11        2.87590   0.00801   0.00000   0.02506   0.02518   2.90108
   R12        2.87612  -0.02329   0.00000  -0.07314  -0.07308   2.80304
   R13        2.02201   0.01531   0.00000   0.03858   0.03858   2.06059
   R14        2.70231   0.00502   0.00000   0.01155   0.01155   2.71386
   R15        1.81414  -0.00029   0.00000  -0.00051  -0.00051   1.81363
    A1        1.92918   0.00126   0.00000   0.00824   0.00821   1.93739
    A2        1.92667   0.00302   0.00000   0.02086   0.02078   1.94745
    A3        1.88415  -0.00287   0.00000  -0.00631  -0.00637   1.87778
    A4        1.86877  -0.00092   0.00000  -0.00515  -0.00534   1.86343
    A5        1.92870   0.00127   0.00000   0.00539   0.00551   1.93421
    A6        1.92687  -0.00168   0.00000  -0.02284  -0.02281   1.90406
    A7        1.92704   0.00218   0.00000   0.01728   0.01719   1.94423
    A8        1.92835   0.00238   0.00000   0.02406   0.02403   1.95238
    A9        1.88449   0.00012   0.00000   0.00081   0.00067   1.88517
   A10        1.86894  -0.00059   0.00000  -0.00413  -0.00474   1.86420
   A11        1.92814  -0.00312   0.00000  -0.02866  -0.02855   1.89959
   A12        1.92738  -0.00097   0.00000  -0.00934  -0.00949   1.91790
   A13        1.91063  -0.00044   0.00000  -0.01099  -0.01096   1.89967
   A14        1.91791   0.00161   0.00000   0.02162   0.02159   1.93950
   A15        1.91690  -0.00191   0.00000  -0.00518  -0.00572   1.91118
   A16        1.91685  -0.00160   0.00000  -0.01154  -0.01156   1.90528
   A17        1.91796  -0.00106   0.00000  -0.00999  -0.00992   1.90805
   A18        1.88345   0.00344   0.00000   0.01644   0.01649   1.89995
   A19        1.88391  -0.00957   0.00000  -0.03499  -0.03496   1.84895
   A20        1.91692   0.00236   0.00000   0.00746   0.00746   1.92438
   A21        1.91766   0.00561   0.00000   0.03141   0.03145   1.94911
   A22        1.91766   0.00218   0.00000   0.00383   0.00379   1.92146
   A23        1.91692   0.00375   0.00000   0.01773   0.01801   1.93492
   A24        1.91063  -0.00431   0.00000  -0.02516  -0.02524   1.88539
   A25        1.92601  -0.00381   0.00000  -0.02873  -0.02873   1.89728
   A26        1.88424   0.00902   0.00000   0.02530   0.02531   1.90955
   A27        1.92661  -0.00377   0.00000  -0.02609  -0.02600   1.90060
   A28        1.91114  -0.00191   0.00000  -0.01037  -0.01037   1.90077
    D1        2.03854   0.00162   0.00000   0.01346   0.01364   2.05217
    D2       -0.02565  -0.00051   0.00000  -0.00722  -0.00726  -0.03290
    D3       -2.13508  -0.00082   0.00000  -0.01075  -0.01067  -2.14575
    D4       -0.02573   0.00008   0.00000   0.00164   0.00169  -0.02404
    D5       -2.08991  -0.00204   0.00000  -0.01903  -0.01920  -2.10911
    D6        2.08384  -0.00235   0.00000  -0.02256  -0.02261   2.06123
    D7       -2.13331   0.00212   0.00000   0.02105   0.02130  -2.11201
    D8        2.08569   0.00000   0.00000   0.00037   0.00041   2.08610
    D9       -0.02374  -0.00031   0.00000  -0.00316  -0.00300  -0.02675
   D10        0.07160  -0.00126   0.00000  -0.00767  -0.00753   0.06407
   D11       -2.01889   0.00048   0.00000   0.00439   0.00443  -2.01446
   D12        2.16162   0.00078   0.00000   0.01097   0.01082   2.17244
   D13        2.18323  -0.00076   0.00000   0.00170   0.00183   2.18506
   D14        0.09274   0.00098   0.00000   0.01376   0.01378   0.10652
   D15       -2.00993   0.00127   0.00000   0.02034   0.02017  -1.98976
   D16       -2.03586  -0.00216   0.00000  -0.01557  -0.01544  -2.05129
   D17        2.15684  -0.00042   0.00000  -0.00351  -0.00348   2.15335
   D18        0.05416  -0.00012   0.00000   0.00306   0.00291   0.05707
   D19        2.07375  -0.00041   0.00000  -0.02354  -0.02363   2.05012
   D20       -0.03317   0.00085   0.00000   0.00974   0.00977  -0.02341
   D21       -2.10056   0.00047   0.00000  -0.01908  -0.01924  -2.11979
   D22        2.07571   0.00172   0.00000   0.01420   0.01416   2.08986
   D23       -0.03629  -0.00282   0.00000  -0.04790  -0.04775  -0.08404
   D24       -2.14321  -0.00156   0.00000  -0.01462  -0.01436  -2.15757
   D25       -2.18196   0.00094   0.00000  -0.00317  -0.00352  -2.18548
   D26       -0.09194  -0.00070   0.00000  -0.01296  -0.01308  -0.10502
   D27        2.01073  -0.00228   0.00000  -0.03045  -0.03056   1.98017
   D28        1.99844   0.00148   0.00000   0.00407   0.00389   2.00232
   D29       -2.19473  -0.00016   0.00000  -0.00572  -0.00567  -2.20040
   D30       -0.09205  -0.00174   0.00000  -0.02322  -0.02316  -0.11521
   D31       -0.09210   0.00162   0.00000   0.01297   0.01281  -0.07929
   D32        1.99792  -0.00001   0.00000   0.00318   0.00325   2.00117
   D33       -2.18259  -0.00159   0.00000  -0.01432  -0.01424  -2.19682
   D34        2.16792   0.00184   0.00000   0.02063   0.02042   2.18833
   D35        0.06137   0.00312   0.00000   0.05555   0.05550   0.11687
   D36       -2.01242  -0.00059   0.00000  -0.00254  -0.00266  -2.01508
   D37        2.16422   0.00069   0.00000   0.03238   0.03242   2.19664
   D38        0.07741  -0.00107   0.00000  -0.01241  -0.01260   0.06481
   D39       -2.02914   0.00021   0.00000   0.02252   0.02248  -2.00665
   D40        2.10804   0.00330   0.00000   0.01017   0.00980   2.11785
   D41       -2.10535  -0.00273   0.00000  -0.00281  -0.00252  -2.10787
   D42        0.00158  -0.00040   0.00000  -0.00283  -0.00275  -0.00118
         Item               Value     Threshold  Converged?
 Maximum Force            0.067044     0.000450     NO 
 RMS     Force            0.009655     0.000300     NO 
 Maximum Displacement     0.213558     0.001800     NO 
 RMS     Displacement     0.039437     0.001200     NO 
 Predicted change in Energy=-1.330927D-02
 GradGradGradGradGradGradGradGradGradGradGradGradGradGradGradGradGradGrad

                          Input orientation:                          
 ---------------------------------------------------------------------
 Center     Atomic      Atomic             Coordinates (Angstroms)
 Number     Number       Type             X           Y           Z
 ---------------------------------------------------------------------
      1          6           0       -9.249815    0.001910   -2.919071
      2          6           0       -9.698251    1.463211   -3.036378
      3          1           0       -9.637827   -0.595464   -3.750103
      4          1           0       -9.619418   -0.459585   -1.999330
      5          1           0       -8.445446    2.803401   -3.944610
      6          1           0      -10.324079    1.758595   -2.187175
      7          1           0      -10.289592    1.636719   -3.940859
      8          6           0       -7.280908    1.459278   -2.923342
      9          1           0       -6.600603    1.658134   -3.751255
     10          1           0       -6.773940    1.693082   -1.987167
     11          6           0       -7.716621   -0.012681   -2.906566
     12          1           0       -7.336695   -0.525882   -3.790472
     13          7           0       -8.485616    2.314425   -3.055984
     14          8           0       -7.202007   -0.685209   -1.746698
     15          1           0       -6.652879   -1.419217   -2.030909
 ---------------------------------------------------------------------
                    Distance matrix (angstroms):
                    1          2          3          4          5
     1  C    0.000000
     2  C    1.533055   0.000000
     3  H    1.094542   2.179725   0.000000
     4  H    1.093393   2.186053   1.756134   0.000000
     5  H    3.089837   2.047075   3.607200   3.976104   0.000000
     6  H    2.185328   1.095471   2.907796   2.334985   2.776592
     7  H    2.190385   1.094475   2.333201   2.934818   2.182209
     8  C    2.449600   2.419987   3.234280   3.162984   2.050806
     9  H    3.233254   3.185037   3.781988   4.082551   2.180015
    10  H    3.139820   3.115329   4.067829   3.568035   2.803270
    11  C    1.533315   2.474261   2.177664   2.154864   3.088534
    12  H    2.167471   3.178379   2.302537   2.902311   3.512437
    13  N    2.439359   1.481699   3.205752   3.177603   1.015070
    14  O    2.457664   3.536978   3.155139   2.441026   4.306664
    15  H    3.090714   4.312035   3.541766   3.118052   4.970518
                    6          7          8          9         10
     6  H    0.000000
     7  H    1.758252   0.000000
     8  C    3.145223   3.181039   0.000000
     9  H    4.039890   3.693920   1.089861   0.000000
    10  H    3.556372   4.022424   1.090002   1.772928   0.000000
    11  C    3.233231   3.226525   1.535185   2.179591   2.154895
    12  H    4.088259   3.663203   2.167000   2.305059   2.914173
    13  N    2.108014   2.120523   1.483305   2.113621   2.111463
    14  O    3.989177   4.442845   2.447354   3.141845   2.428443
    15  H    4.858047   5.119798   3.078407   3.525962   3.114959
                   11         12         13         14         15
    11  C    0.000000
    12  H    1.090416   0.000000
    13  N    2.455424   3.150689   0.000000
    14  O    1.436111   2.054394   3.515635   0.000000
    15  H    1.968924   2.088471   4.283665   0.959731   0.000000
 Stoichiometry    C4H9NO
 Framework group  C1[X(C4H9NO)]
 Deg. of freedom    39
 Full point group                 C1      NOp   1
 Largest Abelian subgroup         C1      NOp   1
 Largest concise Abelian subgroup C1      NOp   1
                         Standard orientation:                         
 ---------------------------------------------------------------------
 Center     Atomic      Atomic             Coordinates (Angstroms)
 Number     Number       Type             X           Y           Z
 ---------------------------------------------------------------------
      1          6           0        0.075235   -1.219932    0.175129
      2          6           0        1.471452   -0.698824   -0.184430
      3          1           0        0.110528   -1.853169    1.067197
      4          1           0       -0.345477   -1.830354   -0.628546
      5          1           0        2.037869    1.143648    0.504761
      6          1           0        1.790853   -1.058095   -1.168790
      7          1           0        2.227648   -1.030095    0.534112
      8          6           0        0.032045    1.227663    0.085932
      9          1           0        0.046320    1.925521    0.922944
     10          1           0       -0.378663    1.733979   -0.787604
     11          6           0       -0.828296   -0.002827    0.406090
     12          1           0       -1.158223    0.030796    1.444851
     13          7           0        1.415270    0.781579   -0.210533
     14          8           0       -1.995405   -0.042381   -0.429798
     15          1           0       -2.777121   -0.030710    0.126860
 ---------------------------------------------------------------------
 Rotational constants (GHZ):      6.2480464      3.1331182      2.3467900
 Standard basis: 6-311+G(2d,p) (5D, 7F)
 There are   228 symmetry adapted cartesian basis functions of A   symmetry.
 There are   216 symmetry adapted basis functions of A   symmetry.
   216 basis functions,   324 primitive gaussians,   228 cartesian basis functions
    24 alpha electrons       24 beta electrons
       nuclear repulsion energy       255.3212892030 Hartrees.
 NAtoms=   15 NActive=   15 NUniq=   15 SFac= 1.00D+00 NAtFMM=   60 NAOKFM=F Big=F
 Integral buffers will be    262144 words long.
 Raffenetti 2 integral format.
 Two-electron integral symmetry is turned on.
 R6APFD:  NTU= -4 IXU= 1 FactS= 1.050
 Nuclear repulsion after empirical dispersion term =      255.3147377164 Hartrees.
 ------------------------------------------------------------------------------
 Polarizable Continuum Model (PCM)
 =================================
 Model                : PCM (using non-symmetric T matrix).
 Atomic radii         : UFF (Universal Force Field).
 Polarization charges : Total charges.
 Charge compensation  : None.
 Solution method      : On-the-fly selection.
 Cavity type          : Scaled VdW (van der Waals Surface) (Alpha=1.100).
 Cavity algorithm     : GePol (No added spheres)
                        Default sphere list used, NSphG=   15.
                        Lebedev-Laikov grids with approx.  5.0 points / Ang**2.
                        Smoothing algorithm: Karplus/York (Gamma=1.0000).
                        Polarization charges: spherical gaussians, with
                                              point-specific exponents (IZeta= 3).
                        Self-potential: point-specific (ISelfS= 7).
                        Self-field    : sphere-specific E.n sum rule (ISelfD= 2).
 1st derivatives      : Analytical E(r).r(x)/FMM algorithm (CHGder, D1EAlg=3).
                        Cavity 1st derivative terms included.
 Solvent              : Water, Eps=  78.355300 Eps(inf)=   1.777849
 ------------------------------------------------------------------------------
 Spheres list:
 ISph  on   Nord     Re0    Alpha      Xe            Ye            Ze
    1   C      1    1.9255  1.100      0.075235     -1.219932      0.175129
    2   C      2    1.9255  1.100      1.471452     -0.698824     -0.184430
    3   H      3    1.4430  1.100      0.110528     -1.853169      1.067197
    4   H      4    1.4430  1.100     -0.345477     -1.830354     -0.628546
    5   H      5    1.4430  1.100      2.037869      1.143648      0.504761
    6   H      6    1.4430  1.100      1.790853     -1.058095     -1.168790
    7   H      7    1.4430  1.100      2.227648     -1.030095      0.534112
    8   C      8    1.9255  1.100      0.032045      1.227663      0.085932
    9   H      9    1.4430  1.100      0.046320      1.925521      0.922944
   10   H     10    1.4430  1.100     -0.378663      1.733979     -0.787604
   11   C     11    1.9255  1.100     -0.828296     -0.002827      0.406090
   12   H     12    1.4430  1.100     -1.158223      0.030796      1.444851
   13   N     13    1.8300  1.100      1.415270      0.781579     -0.210533
   14   O     14    1.7500  1.100     -1.995405     -0.042381     -0.429798
   15   H     15    1.4430  1.100     -2.777121     -0.030710      0.126860
 ------------------------------------------------------------------------------
 One-electron integrals computed using PRISM.
 NBasis=   216 RedAO= T EigKep=  9.18D-06  NBF=   216
 NBsUse=   216 1.00D-06 EigRej= -1.00D+00 NBFU=   216
 Initial guess from the checkpoint file:  "D:\mindmap\gaussian\calculate\opt_freq\3OHN\3OHN.chk"
 B after Tr=     0.000000    0.000000    0.000000
         Rot=    0.999990   -0.004165    0.000219   -0.001379 Ang=  -0.50 deg.
 ExpMin= 4.38D-02 ExpMax= 8.59D+03 ExpMxC= 1.30D+03 IAcc=2 IRadAn=         4 AccDes= 0.00D+00
 Harris functional with IExCor= 3731 and IRadAn=       4 diagonalized for initial guess.
 HarFok:  IExCor= 3731 AccDes= 0.00D+00 IRadAn=         4 IDoV= 1 UseB2=F ITyADJ=14
 ICtDFT=  3500011 ScaDFX=  1.000000  1.000000  1.000000  1.000000
 FoFCou: FMM=F IPFlag=           0 FMFlag=      100000 FMFlg1=           0
         NFxFlg=           0 DoJE=T BraDBF=F KetDBF=T FulRan=T
         wScrn=  0.000000 ICntrl=     500 IOpCl=  0 I1Cent=   200000004 NGrid=           0
         NMat0=    1 NMatS0=      1 NMatT0=    0 NMatD0=    1 NMtDS0=    0 NMtDT0=    0
 Petite list used in FoFCou.
 Requested convergence on RMS density matrix=1.00D-08 within 128 cycles.
 Requested convergence on MAX density matrix=1.00D-06.
 Requested convergence on             energy=1.00D-06.
 No special actions if energy rises.
 Inv3:  Mode=1 IEnd=     4198467.
 Iteration    1 A*A^-1 deviation from unit magnitude is 2.55D-15 for     81.
 Iteration    1 A*A^-1 deviation from orthogonality  is 2.28D-15 for   1133    379.
 Iteration    1 A^-1*A deviation from unit magnitude is 2.44D-15 for     79.
 Iteration    1 A^-1*A deviation from orthogonality  is 4.37D-09 for   1002    983.
 Iteration    2 A*A^-1 deviation from unit magnitude is 3.11D-15 for    264.
 Iteration    2 A*A^-1 deviation from orthogonality  is 3.58D-15 for   1134    522.
 Iteration    2 A^-1*A deviation from unit magnitude is 1.11D-15 for    267.
 Iteration    2 A^-1*A deviation from orthogonality  is 3.99D-16 for    584    541.
