 Entering Link 1 = C:\G09W\l1.exe PID=     11180.
  
 Copyright (c) 1988,1990,1992,1993,1995,1998,2003,2009,2013,
            Gaussian, Inc.  All Rights Reserved.
  
 This is part of the Gaussian(R) 09 program.  It is based on
 the Gaussian(R) 03 system (copyright 2003, Gaussian, Inc.),
 the Gaussian(R) 98 system (copyright 1998, Gaussian, Inc.),
 the Gaussian(R) 94 system (copyright 1995, Gaussian, Inc.),
 the Gaussian 92(TM) system (copyright 1992, Gaussian, Inc.),
 the Gaussian 90(TM) system (copyright 1990, Gaussian, Inc.),
 the Gaussian 88(TM) system (copyright 1988, Gaussian, Inc.),
 the Gaussian 86(TM) system (copyright 1986, Carnegie Mellon
 University), and the Gaussian 82(TM) system (copyright 1983,
 Carnegie Mellon University). Gaussian is a federally registered
 trademark of Gaussian, Inc.
  
 This software contains proprietary and confidential information,
 including trade secrets, belonging to Gaussian, Inc.
  
 This software is provided under written license and may be
 used, copied, transmitted, or stored only in accord with that
 written license.
  
 The following legend is applicable only to US Government
 contracts under FAR:
  
                    RESTRICTED RIGHTS LEGEND
  
 Use, reproduction and disclosure by the US Government is
 subject to restrictions as set forth in subparagraphs (a)
 and (c) of the Commercial Computer Software - Restricted
 Rights clause in FAR 52.227-19.
  
 Gaussian, Inc.
 340 Quinnipiac St., Bldg. 40, Wallingford CT 06492
  
  
 ---------------------------------------------------------------
 Warning -- This program may not be used in any manner that
 competes with the business of Gaussian, Inc. or will provide
 assistance to any competitor of Gaussian, Inc.  The licensee
 of this program is prohibited from giving any competitor of
 Gaussian, Inc. access to this program.  By using this program,
 the user acknowledges that Gaussian, Inc. is engaged in the
 business of creating and licensing software in the field of
 computational chemistry and represents and warrants to the
 licensee that it is not a competitor of Gaussian, Inc. and that
 it will not use this program in any manner prohibited above.
 ---------------------------------------------------------------
  

 Cite this work as:
 Gaussian 09, Revision D.01,
 M. J. Frisch, G. W. Trucks, H. B. Schlegel, G. E. Scuseria, 
 M. A. Robb, J. R. Cheeseman, G. Scalmani, V. Barone, B. Mennucci, 
 G. A. Petersson, H. Nakatsuji, M. Caricato, X. Li, H. P. Hratchian, 
 A. F. Izmaylov, J. Bloino, G. Zheng, J. L. Sonnenberg, M. Hada, 
 M. Ehara, K. Toyota, R. Fukuda, J. Hasegawa, M. Ishida, T. Nakajima, 
 Y. Honda, O. Kitao, H. Nakai, T. Vreven, J. A. Montgomery, Jr., 
 J. E. Peralta, F. Ogliaro, M. Bearpark, J. J. Heyd, E. Brothers, 
 K. N. Kudin, V. N. Staroverov, T. Keith, R. Kobayashi, J. Normand, 
 K. Raghavachari, A. Rendell, J. C. Burant, S. S. Iyengar, J. Tomasi, 
 M. Cossi, N. Rega, J. M. Millam, M. Klene, J. E. Knox, J. B. Cross, 
 V. Bakken, C. Adamo, J. Jaramillo, R. Gomperts, R. E. Stratmann, 
 O. Yazyev, A. J. Austin, R. Cammi, C. Pomelli, J. W. Ochterski, 
 R. L. Martin, K. Morokuma, V. G. Zakrzewski, G. A. Voth, 
 P. Salvador, J. J. Dannenberg, S. Dapprich, A. D. Daniels, 
 O. Farkas, J. B. Foresman, J. V. Ortiz, J. Cioslowski, 
 and D. J. Fox, Gaussian, Inc., Wallingford CT, 2013.
 
 ******************************************
 Gaussian 09:  IA32W-G09RevD.01 24-Apr-2013
                01-Apr-2022 
 ******************************************
 %nprocshared=4
 Will use up to    4 processors via shared memory.
 %mem=1GB
 %chk=D:\mindmap\gaussian\calculate\opt_freq\QM1\6-21g.chk
 -------------------------------------------------
 # opt freq b3lyp/6-21g pop=full geom=connectivity
 -------------------------------------------------
 1/14=-1,18=20,19=15,26=3,38=1,57=2/1,3;
 2/9=110,12=2,17=6,18=5,40=1/2;
 3/5=5,6=6,11=2,16=1,25=1,30=1,71=1,74=-5/1,2,3;
 4//1;
 5/5=2,38=5/2;
 6/7=3,28=1/1;
 7//1,2,3,16;
 1/14=-1,18=20,19=15,26=3/3(2);
 2/9=110/2;
 99//99;
 2/9=110/2;
 3/5=5,6=6,11=2,16=1,25=1,30=1,71=1,74=-5/1,2,3;
 4/5=5,16=3,69=1/1;
 5/5=2,38=5/2;
 7//1,2,3,16;
 1/14=-1,18=20,19=15,26=3/3(-5);
 2/9=110/2;
 6/7=3,19=2,28=1/1;
 99/9=1/99;
 ----------------------
 Energy Calculation(GC)
 ----------------------
 Symbolic Z-matrix:
 Charge =  0 Multiplicity = 1
 C                    -1.4104    0.08457   0. 
 N                    -0.43264  -0.86232   0. 
 C                     0.83472  -0.39869   0. 
 C                     1.13303   0.97771   0. 
 C                     0.03969   1.86541   0. 
 N                    -1.23931   1.43492   0. 
 H                     0.18768   2.9601    0. 
 Cl                   -3.07099  -0.49857   0. 
 Cl                    2.1092   -1.61248   0. 
 C                     2.58607   1.4879    0. 
 H                     3.0897    1.13014   0.87365 
 H                     3.0897    1.13014  -0.87365 
 H                     2.58838   2.5579    0. 
 

 GradGradGradGradGradGradGradGradGradGradGradGradGradGradGradGradGradGrad
 Berny optimization.
 Initialization pass.
                           ----------------------------
                           !    Initial Parameters    !
                           ! (Angstroms and Degrees)  !
 --------------------------                            --------------------------
 ! Name  Definition              Value          Derivative Info.                !
 --------------------------------------------------------------------------------
 ! R1    R(1,2)                  1.3611         estimate D2E/DX2                !
 ! R2    R(1,6)                  1.3611         estimate D2E/DX2                !
 ! R3    R(1,8)                  1.76           estimate D2E/DX2                !
 ! R4    R(2,3)                  1.3495         estimate D2E/DX2                !
 ! R5    R(3,4)                  1.4084         estimate D2E/DX2                !
 ! R6    R(3,9)                  1.76           estimate D2E/DX2                !
 ! R7    R(4,5)                  1.4083         estimate D2E/DX2                !
 ! R8    R(4,10)                 1.54           estimate D2E/DX2                !
 ! R9    R(5,6)                  1.3495         estimate D2E/DX2                !
 ! R10   R(5,7)                  1.1046         estimate D2E/DX2                !
 ! R11   R(10,11)                1.07           estimate D2E/DX2                !
 ! R12   R(10,12)                1.07           estimate D2E/DX2                !
 ! R13   R(10,13)                1.07           estimate D2E/DX2                !
 ! A1    A(2,1,6)              126.8598         estimate D2E/DX2                !
 ! A2    A(2,1,8)              116.5695         estimate D2E/DX2                !
 ! A3    A(6,1,8)              116.5707         estimate D2E/DX2                !
 ! A4    A(1,2,3)              115.8253         estimate D2E/DX2                !
 ! A5    A(2,3,4)              122.3225         estimate D2E/DX2                !
 ! A6    A(2,3,9)              116.3034         estimate D2E/DX2                !
 ! A7    A(4,3,9)              121.3741         estimate D2E/DX2                !
 ! A8    A(3,4,5)              116.8447         estimate D2E/DX2                !
 ! A9    A(3,4,10)             121.576          estimate D2E/DX2                !
 ! A10   A(5,4,10)             121.5794         estimate D2E/DX2                !
 ! A11   A(4,5,6)              122.3238         estimate D2E/DX2                !
 ! A12   A(4,5,7)              121.374          estimate D2E/DX2                !
 ! A13   A(6,5,7)              116.3023         estimate D2E/DX2                !
 ! A14   A(1,6,5)              115.824          estimate D2E/DX2                !
 ! A15   A(4,10,11)            109.4713         estimate D2E/DX2                !
 ! A16   A(4,10,12)            109.4713         estimate D2E/DX2                !
 ! A17   A(4,10,13)            109.4712         estimate D2E/DX2                !
 ! A18   A(11,10,12)           109.4706         estimate D2E/DX2                !
 ! A19   A(11,10,13)           109.4714         estimate D2E/DX2                !
 ! A20   A(12,10,13)           109.4714         estimate D2E/DX2                !
 ! D1    D(6,1,2,3)              0.0            estimate D2E/DX2                !
 ! D2    D(8,1,2,3)            180.0            estimate D2E/DX2                !
 ! D3    D(2,1,6,5)              0.0            estimate D2E/DX2                !
 ! D4    D(8,1,6,5)            180.0            estimate D2E/DX2                !
 ! D5    D(1,2,3,4)              0.0            estimate D2E/DX2                !
 ! D6    D(1,2,3,9)            180.0            estimate D2E/DX2                !
 ! D7    D(2,3,4,5)              0.0            estimate D2E/DX2                !
 ! D8    D(2,3,4,10)           180.0            estimate D2E/DX2                !
 ! D9    D(9,3,4,5)            180.0            estimate D2E/DX2                !
 ! D10   D(9,3,4,10)             0.0            estimate D2E/DX2                !
 ! D11   D(3,4,5,6)              0.0            estimate D2E/DX2                !
 ! D12   D(3,4,5,7)            180.0            estimate D2E/DX2                !
 ! D13   D(10,4,5,6)           180.0            estimate D2E/DX2                !
 ! D14   D(10,4,5,7)             0.0            estimate D2E/DX2                !
 ! D15   D(3,4,10,11)          -59.9997         estimate D2E/DX2                !
 ! D16   D(3,4,10,12)           59.9997         estimate D2E/DX2                !
 ! D17   D(3,4,10,13)          180.0            estimate D2E/DX2                !
 ! D18   D(5,4,10,11)          120.0003         estimate D2E/DX2                !
 ! D19   D(5,4,10,12)         -120.0003         estimate D2E/DX2                !
 ! D20   D(5,4,10,13)            0.0            estimate D2E/DX2                !
 ! D21   D(4,5,6,1)              0.0            estimate D2E/DX2                !
 ! D22   D(7,5,6,1)            180.0            estimate D2E/DX2                !
 --------------------------------------------------------------------------------
 Trust Radius=3.00D-01 FncErr=1.00D-07 GrdErr=1.00D-06
 Number of steps in this run=     65 maximum allowed number of steps=    100.
 GradGradGradGradGradGradGradGradGradGradGradGradGradGradGradGradGradGrad

                          Input orientation:                          
 ---------------------------------------------------------------------
 Center     Atomic      Atomic             Coordinates (Angstroms)
 Number     Number       Type             X           Y           Z
 ---------------------------------------------------------------------
      1          6           0       -1.410404    0.084567    0.000000
      2          7           0       -0.432644   -0.862319    0.000000
      3          6           0        0.834720   -0.398686    0.000000
      4          6           0        1.133033    0.977715    0.000000
      5          6           0        0.039686    1.865413    0.000000
      6          7           0       -1.239308    1.434916    0.000000
      7          1           0        0.187683    2.960096    0.000000
      8         17           0       -3.070990   -0.498574    0.000000
      9         17           0        2.109202   -1.612480    0.000000
     10          6           0        2.586067    1.487903    0.000000
     11          1           0        3.089698    1.130143    0.873646
     12          1           0        3.089698    1.130143   -0.873646
     13          1           0        2.588383    2.557901    0.000000
 ---------------------------------------------------------------------
                    Distance matrix (angstroms):
                    1          2          3          4          5
     1  C    0.000000
     2  N    1.361105   0.000000
     3  C    2.296544   1.349507   0.000000
     4  C    2.695697   2.416003   1.408357   0.000000
     5  C    2.296557   2.768324   2.399631   1.408338   0.000000
     6  N    1.361145   2.434747   2.768337   2.415995   1.349501
     7  H    3.289764   3.872423   3.420537   2.196252   1.104642
     8  Cl   1.760000   2.663302   3.906987   4.455697   3.907012
     9  Cl   3.907377   2.650231   1.760000   2.768035   4.047053
    10  C    4.235697   3.825724   2.574186   1.540000   2.574212
    11  H    4.701851   4.140056   2.861032   2.148263   3.256756
    12  H    4.701851   4.140056   2.861032   2.148263   3.256756
    13  H    4.701881   4.563388   3.437549   2.148263   2.641098
                    6          7          8          9         10
     6  N    0.000000
     7  H    2.088654   0.000000
     8  Cl   2.663352   4.751983   0.000000
     9  Cl   4.527598   4.959908   5.298602   0.000000
    10  C    3.825741   2.814178   5.995697   3.136842   0.000000
    11  H    4.426786   3.540294   6.431956   3.040824   1.069998
    12  H    4.426786   3.540294   6.431956   3.040824   1.069998
    13  H    3.989024   2.434158   6.431994   4.197820   1.070000
                   11         12         13
    11  H    0.000000
    12  H    1.747293   0.000000
    13  H    1.747303   1.747303   0.000000
 Stoichiometry    C5H4Cl2N2
 Framework group  CS[SG(C5H2Cl2N2),X(H2)]
 Deg. of freedom    22
 Full point group                 CS      NOp   2
 Largest Abelian subgroup         CS      NOp   2
 Largest concise Abelian subgroup CS      NOp   2
                         Standard orientation:                         
 ---------------------------------------------------------------------
 Center     Atomic      Atomic             Coordinates (Angstroms)
 Number     Number       Type             X           Y           Z
 ---------------------------------------------------------------------
      1          6           0        0.531562   -1.309134    0.000000
      2          7           0        0.964585   -0.018747    0.000000
      3          6           0        0.000000    0.925045    0.000000
      4          6           0       -1.370574    0.601012    0.000000
      5          6           0       -1.700371   -0.768166    0.000000
      6          7           0       -0.760674   -1.736733    0.000000
      7          1           0       -2.751950   -1.106419    0.000000
      8         17           0        1.773462   -2.556246    0.000000
      9         17           0        0.545984    2.598216    0.000000
     10          6           0       -2.457191    1.692279    0.000000
     11          1           0       -2.351424    2.300926    0.873646
     12          1           0       -2.351424    2.300926   -0.873646
     13          1           0       -3.423708    1.233210    0.000000
 ---------------------------------------------------------------------
 Rotational constants (GHZ):      2.1149104      0.7599641      0.5609794
 Standard basis: 6-21G (6D, 7F)
 There are    75 symmetry adapted cartesian basis functions of A'  symmetry.
 There are    22 symmetry adapted cartesian basis functions of A"  symmetry.
 There are    75 symmetry adapted basis functions of A'  symmetry.
 There are    22 symmetry adapted basis functions of A"  symmetry.
    97 basis functions,   222 primitive gaussians,    97 cartesian basis functions
    41 alpha electrons       41 beta electrons
       nuclear repulsion energy       554.7204222427 Hartrees.
 NAtoms=   13 NActive=   13 NUniq=   12 SFac= 1.17D+00 NAtFMM=   60 NAOKFM=F Big=F
 Integral buffers will be    262144 words long.
 Raffenetti 2 integral format.
 Two-electron integral symmetry is turned on.
 One-electron integrals computed using PRISM.
 NBasis=    97 RedAO= T EigKep=  6.59D-03  NBF=    75    22
 NBsUse=    97 1.00D-06 EigRej= -1.00D+00 NBFU=    75    22
 ExpMin= 1.67D-01 ExpMax= 2.52D+04 ExpMxC= 3.78D+03 IAcc=1 IRadAn=         1 AccDes= 0.00D+00
 Harris functional with IExCor=  402 and IRadAn=       1 diagonalized for initial guess.
 HarFok:  IExCor=  402 AccDes= 0.00D+00 IRadAn=         1 IDoV= 1 UseB2=F ITyADJ=14
 ICtDFT=  3500011 ScaDFX=  1.000000  1.000000  1.000000  1.000000
 FoFCou: FMM=F IPFlag=           0 FMFlag=      100000 FMFlg1=           0
         NFxFlg=           0 DoJE=T BraDBF=F KetDBF=T FulRan=T
         wScrn=  0.000000 ICntrl=     500 IOpCl=  0 I1Cent=   200000004 NGrid=           0
         NMat0=    1 NMatS0=      1 NMatT0=    0 NMatD0=    1 NMtDS0=    0 NMtDT0=    0
 Petite list used in FoFCou.
 Initial guess orbital symmetries:
       Occupied  (A') (A') (A') (A') (A') (A') (A') (A') (A') (A')
                 (A') (A') (A') (A') (A") (A") (A') (A') (A') (A')
                 (A') (A') (A') (A') (A') (A') (A') (A") (A') (A')
                 (A") (A') (A') (A") (A') (A") (A') (A') (A') (A")
                 (A")
       Virtual   (A") (A") (A') (A") (A') (A') (A') (A') (A") (A')
                 (A') (A') (A') (A') (A') (A') (A') (A') (A') (A')
                 (A') (A") (A") (A') (A') (A") (A') (A") (A') (A')
                 (A") (A') (A') (A") (A") (A') (A') (A") (A') (A')
                 (A") (A') (A') (A") (A') (A') (A') (A') (A') (A')
                 (A') (A') (A') (A') (A') (A')
 The electronic state of the initial guess is 1-A'.
 Keep R1 ints in memory in symmetry-blocked form, NReq=17529400.
 Requested convergence on RMS density matrix=1.00D-08 within 128 cycles.
 Requested convergence on MAX density matrix=1.00D-06.
 Requested convergence on             energy=1.00D-06.
 No special actions if energy rises.
 Integral accuracy reduced to 1.0D-05 until final iterations.
 Initial convergence to 1.0D-05 achieved.  Increase integral accuracy.
 SCF Done:  E(RB3LYP) =  -1222.43171456     A.U. after   16 cycles
            NFock= 16  Conv=0.44D-08     -V/T= 2.0027

 **********************************************************************

            Population analysis using the SCF density.

 **********************************************************************

 Orbital symmetries:
       Occupied  (A') (A') (A') (A') (A') (A') (A') (A') (A') (A')
                 (A') (A') (A") (A') (A') (A") (A') (A') (A') (A')
                 (A') (A') (A') (A') (A') (A') (A') (A") (A') (A')
                 (A") (A') (A') (A") (A") (A') (A') (A') (A") (A")
                 (A')
       Virtual   (A") (A") (A') (A') (A") (A') (A') (A') (A") (A')
                 (A') (A') (A') (A') (A') (A') (A') (A') (A') (A')
                 (A") (A') (A") (A') (A") (A') (A") (A') (A') (A')
                 (A") (A') (A") (A') (A") (A') (A') (A") (A') (A')
                 (A") (A') (A') (A") (A') (A') (A') (A') (A') (A')
                 (A') (A') (A') (A') (A') (A')
 The electronic state is 1-A'.
 Alpha  occ. eigenvalues -- -101.55343-101.53943 -14.40652 -14.39875 -10.35915
 Alpha  occ. eigenvalues --  -10.34321 -10.29108 -10.27091 -10.22301  -9.48905
 Alpha  occ. eigenvalues --   -9.47550  -7.25283  -7.24152  -7.24062  -7.23952
 Alpha  occ. eigenvalues --   -7.22788  -7.22676  -1.04740  -0.95368  -0.90038
 Alpha  occ. eigenvalues --   -0.86263  -0.82442  -0.73260  -0.68612  -0.65459
 Alpha  occ. eigenvalues --   -0.57239  -0.53189  -0.48221  -0.45855  -0.45722
 Alpha  occ. eigenvalues --   -0.44422  -0.44177  -0.42834  -0.38910  -0.35118
 Alpha  occ. eigenvalues --   -0.33995  -0.32777  -0.32651  -0.31790  -0.28123
 Alpha  occ. eigenvalues --   -0.27374
 Alpha virt. eigenvalues --   -0.06546  -0.05426   0.00502   0.03965   0.09316
 Alpha virt. eigenvalues --    0.11335   0.13835   0.15635   0.18410   0.20301
 Alpha virt. eigenvalues --    0.22891   0.25732   0.31939   0.34334   0.39597
 Alpha virt. eigenvalues --    0.48095   0.48960   0.50655   0.53295   0.55372
 Alpha virt. eigenvalues --    0.56512   0.57762   0.57780   0.58915   0.63711
 Alpha virt. eigenvalues --    0.66549   0.70378   0.70548   0.73079   0.74522
 Alpha virt. eigenvalues --    0.76026   0.79015   0.79727   0.82656   0.88005
 Alpha virt. eigenvalues --    0.92074   1.00581   1.04937   1.05748   1.07100
 Alpha virt. eigenvalues --    1.12073   1.15247   1.16766   1.24830   1.29797
 Alpha virt. eigenvalues --    1.33254   1.36641   1.41302   1.47212   1.51517
 Alpha virt. eigenvalues --    1.61303   1.76270   1.90634   1.96374   2.59169
 Alpha virt. eigenvalues --    2.91224
     Molecular Orbital Coefficients:
                           1         2         3         4         5
                           O         O         O         O         O
     Eigenvalues --  -101.55343-101.53943 -14.40652 -14.39875 -10.35915
   1 1   C  1S          0.00000   0.00000   0.00003   0.00004   0.99417
   2        2S         -0.00003   0.00005   0.00003   0.00003   0.03060
   3        2PX         0.00000  -0.00002   0.00003  -0.00017   0.00021
   4        2PY        -0.00005   0.00002   0.00016  -0.00002  -0.00011
   5        2PZ         0.00000   0.00000   0.00000   0.00000   0.00000
   6        3S         -0.00021  -0.00038   0.00334   0.00343  -0.00927
   7        3PX        -0.00009   0.00005  -0.00025  -0.00290  -0.00102
   8        3PY        -0.00008  -0.00004   0.00283   0.00017   0.00099
   9        3PZ         0.00000   0.00000   0.00000   0.00000   0.00000
  10 2   N  1S         -0.00001  -0.00001   0.99415   0.00004  -0.00003
  11        2S         -0.00004  -0.00002   0.03024   0.00027   0.00025
  12        2PX         0.00002   0.00006  -0.00269  -0.00006  -0.00009
  13        2PY         0.00008  -0.00007  -0.00061   0.00008   0.00011
  14        2PZ         0.00000   0.00000   0.00000   0.00000   0.00000
  15        3S          0.00040   0.00025  -0.01272  -0.00125  -0.00059
  16        3PX        -0.00019  -0.00027   0.00403   0.00105   0.00119
  17        3PY        -0.00024   0.00025   0.00074  -0.00011  -0.00037
  18        3PZ         0.00000   0.00000   0.00000   0.00000   0.00000
  19 3   C  1S          0.00000   0.00000   0.00002   0.00000  -0.00012
  20        2S          0.00004  -0.00002  -0.00011   0.00008  -0.00026
  21        2PX         0.00002  -0.00002   0.00011   0.00001   0.00006
  22        2PY        -0.00005   0.00004  -0.00004  -0.00011   0.00012
  23        2PZ         0.00000   0.00000   0.00000   0.00000   0.00000
  24        3S         -0.00057  -0.00029   0.00460   0.00195   0.00284
  25        3PX        -0.00009  -0.00015   0.00092  -0.00047  -0.00085
  26        3PY         0.00032   0.00010  -0.00375  -0.00068  -0.00247
  27        3PZ         0.00000   0.00000   0.00000   0.00000   0.00000
  28 4   C  1S         -0.00001   0.00000   0.00005   0.00006   0.00003
  29        2S          0.00000  -0.00001   0.00019   0.00024   0.00024
  30        2PX         0.00002  -0.00001  -0.00004   0.00017   0.00007
  31        2PY         0.00010   0.00001  -0.00017   0.00005  -0.00006
  32        2PZ         0.00000   0.00000   0.00000   0.00000   0.00000
  33        3S          0.00042   0.00000  -0.00198  -0.00247  -0.00308
  34        3PX         0.00008   0.00011  -0.00163  -0.00221  -0.00225
  35        3PY        -0.00075  -0.00014   0.00235   0.00182   0.00221
  36        3PZ         0.00000   0.00000   0.00000   0.00000   0.00000
  37 5   C  1S          0.00001   0.00000   0.00000   0.00002  -0.00010
  38        2S          0.00005  -0.00002   0.00009  -0.00016  -0.00028
  39        2PX        -0.00002  -0.00004   0.00011   0.00007  -0.00008
  40        2PY        -0.00001   0.00002  -0.00001  -0.00014  -0.00004
  41        2PZ         0.00000   0.00000   0.00000   0.00000   0.00000
  42        3S         -0.00062  -0.00029   0.00187   0.00460   0.00270
  43        3PX        -0.00012  -0.00010   0.00064   0.00365   0.00243
  44        3PY        -0.00031   0.00010   0.00046  -0.00037   0.00080
  45        3PZ         0.00000   0.00000   0.00000   0.00000   0.00000
  46 6   N  1S          0.00000  -0.00001   0.00005   0.99415  -0.00003
  47        2S         -0.00001  -0.00002   0.00027   0.03020   0.00024
  48        2PX        -0.00001   0.00007  -0.00008   0.00072  -0.00011
  49        2PY         0.00000  -0.00006   0.00006   0.00269   0.00009
  50        2PZ         0.00000   0.00000   0.00000   0.00000   0.00000
  51        3S          0.00003   0.00023  -0.00126  -0.01250  -0.00056
  52        3PX         0.00002  -0.00023   0.00008  -0.00101   0.00039
  53        3PY         0.00006   0.00026  -0.00102  -0.00396  -0.00117
  54        3PZ         0.00000   0.00000   0.00000   0.00000   0.00000
  55 7   H  1S          0.00001   0.00001  -0.00001   0.00011   0.00017
  56        2S         -0.00001   0.00002   0.00005   0.00082   0.00078
  57 8   Cl 1S         -0.00001   0.99655   0.00000   0.00000  -0.00002
  58        2S          0.00000   0.01351   0.00000   0.00000   0.00006
  59        2PX         0.00000  -0.00007   0.00001   0.00000  -0.00002
  60        2PY         0.00000   0.00007   0.00000  -0.00001   0.00002
  61        2PZ         0.00000   0.00000   0.00000   0.00000   0.00000
  62        3S         -0.00001  -0.00472   0.00002   0.00002  -0.00053
  63        3PX         0.00000   0.00012  -0.00004  -0.00002  -0.00006
  64        3PY         0.00001  -0.00012   0.00002   0.00004   0.00006
  65        3PZ         0.00000   0.00000   0.00000   0.00000   0.00000
  66        4S          0.00005   0.00232   0.00038   0.00037   0.00262
  67        4PX        -0.00001  -0.00026  -0.00034   0.00006  -0.00119
  68        4PY         0.00003   0.00026  -0.00005   0.00034   0.00120
  69        4PZ         0.00000   0.00000   0.00000   0.00000   0.00000
  70 9   Cl 1S          0.99655   0.00001   0.00000   0.00000   0.00000
  71        2S          0.01352   0.00000  -0.00001   0.00000  -0.00002
  72        2PX        -0.00004   0.00000   0.00002   0.00000   0.00000
  73        2PY        -0.00009   0.00000   0.00001   0.00000   0.00003
  74        2PZ         0.00000   0.00000   0.00000   0.00000   0.00000
  75        3S         -0.00478  -0.00001   0.00004   0.00004   0.00003
  76        3PX         0.00009   0.00000  -0.00007   0.00000  -0.00002
  77        3PY         0.00018  -0.00001  -0.00009  -0.00001  -0.00016
  78        3PZ         0.00000   0.00000   0.00000   0.00000   0.00000
  79        4S          0.00235   0.00003   0.00064   0.00000   0.00069
  80        4PX        -0.00016   0.00001  -0.00035   0.00003  -0.00015
  81        4PY        -0.00035  -0.00003  -0.00026   0.00001  -0.00034
  82        4PZ         0.00000   0.00000   0.00000   0.00000   0.00000
  83 10  C  1S          0.00000   0.00000   0.00001   0.00001   0.00001
  84        2S          0.00000   0.00000   0.00001   0.00003   0.00006
  85        2PX         0.00009   0.00001  -0.00010  -0.00005  -0.00005
  86        2PY         0.00001  -0.00001   0.00004   0.00009   0.00006
  87        2PZ         0.00000   0.00000   0.00000   0.00000   0.00000
  88        3S          0.00039   0.00011  -0.00111  -0.00117  -0.00121
  89        3PX        -0.00011   0.00002  -0.00021  -0.00033  -0.00038
  90        3PY        -0.00010  -0.00003   0.00045   0.00021   0.00038
  91        3PZ         0.00000   0.00000   0.00000   0.00000   0.00000
  92 11  H  1S          0.00004   0.00000   0.00002   0.00005   0.00004
  93        2S         -0.00010   0.00000  -0.00004   0.00005   0.00000
  94 12  H  1S          0.00004   0.00000   0.00002   0.00005   0.00004
  95        2S         -0.00010   0.00000  -0.00004   0.00005   0.00000
  96 13  H  1S         -0.00003   0.00000   0.00005  -0.00002   0.00004
  97        2S         -0.00014  -0.00002   0.00011   0.00012   0.00001
                           6         7         8         9        10
                           O         O         O         O         O
     Eigenvalues --   -10.34321 -10.29108 -10.27091 -10.22301  -9.48905
   1 1   C  1S          0.00002  -0.00001   0.00002   0.00000  -0.00001
   2        2S         -0.00016  -0.00028   0.00003  -0.00005   0.00011
   3        2PX         0.00007   0.00025   0.00003   0.00004  -0.00001
   4        2PY        -0.00013  -0.00010  -0.00003  -0.00003   0.00021
   5        2PZ         0.00000   0.00000   0.00000   0.00000   0.00000
   6        3S          0.00099   0.00116   0.00035   0.00024   0.00096
   7        3PX        -0.00130  -0.00120  -0.00026  -0.00013   0.00028
   8        3PY         0.00087   0.00180   0.00036   0.00030   0.00040
   9        3PZ         0.00000   0.00000   0.00000   0.00000   0.00000
  10 2   N  1S         -0.00005   0.00004   0.00002  -0.00001   0.00004
  11        2S          0.00019   0.00024   0.00007  -0.00008   0.00015
  12        2PX         0.00001  -0.00002   0.00003   0.00002  -0.00009
  13        2PY        -0.00007  -0.00002  -0.00006  -0.00004  -0.00033
  14        2PZ         0.00000   0.00000   0.00000   0.00000   0.00000
  15        3S         -0.00038  -0.00130  -0.00069   0.00024  -0.00166
  16        3PX         0.00068   0.00061   0.00047  -0.00008   0.00082
  17        3PY        -0.00008   0.00061   0.00023   0.00036   0.00101
  18        3PZ         0.00000   0.00000   0.00000   0.00000   0.00000
  19 3   C  1S          0.99418  -0.00006  -0.00341   0.00003  -0.00006
  20        2S          0.03098  -0.00015  -0.00068  -0.00013  -0.00031
  21        2PX         0.00053   0.00016   0.00031   0.00013  -0.00012
  22        2PY         0.00030   0.00002   0.00005  -0.00007   0.00008
  23        2PZ         0.00000   0.00000   0.00000   0.00000   0.00000
  24        3S         -0.01185   0.00105   0.00490   0.00036   0.00302
  25        3PX         0.00185  -0.00099  -0.00263  -0.00089   0.00063
  26        3PY        -0.00174  -0.00025  -0.00128  -0.00012  -0.00085
  27        3PZ         0.00000   0.00000   0.00000   0.00000   0.00000
  28 4   C  1S          0.00326   0.01193   0.99414  -0.00198   0.00003
  29        2S         -0.00037  -0.00009   0.03160  -0.00025  -0.00003
  30        2PX        -0.00025   0.00017   0.00047   0.00010  -0.00010
  31        2PY        -0.00026   0.00029  -0.00030  -0.00005  -0.00043
  32        2PZ         0.00000   0.00000   0.00000   0.00000   0.00000
  33        3S          0.00296   0.00329  -0.01610   0.00235  -0.00172
  34        3PX         0.00213  -0.00162  -0.00182  -0.00215  -0.00019
  35        3PY         0.00291  -0.00269   0.00167   0.00158   0.00308
  36        3PZ         0.00000   0.00000   0.00000   0.00000   0.00000
  37 5   C  1S         -0.00003   0.99406  -0.01207   0.00007  -0.00004
  38        2S         -0.00015   0.03097  -0.00096  -0.00014  -0.00019
  39        2PX         0.00003   0.00082  -0.00007   0.00008   0.00007
  40        2PY        -0.00007  -0.00015  -0.00026  -0.00011   0.00005
  41        2PZ         0.00000   0.00000   0.00000   0.00000   0.00000
  42        3S          0.00174  -0.01159   0.00506   0.00029   0.00261
  43        3PX         0.00016  -0.00076   0.00146   0.00012   0.00048
  44        3PY         0.00118  -0.00235   0.00225   0.00022   0.00136
  45        3PZ         0.00000   0.00000   0.00000   0.00000   0.00000
  46 6   N  1S          0.00003  -0.00005   0.00003   0.00000   0.00001
  47        2S          0.00019   0.00012   0.00011  -0.00004   0.00003
  48        2PX         0.00003   0.00002   0.00004   0.00001   0.00003
  49        2PY         0.00002  -0.00002  -0.00002  -0.00002   0.00002
  50        2PZ         0.00000   0.00000   0.00000   0.00000   0.00000
  51        3S         -0.00099   0.00018  -0.00092   0.00005  -0.00014
  52        3PX        -0.00053   0.00027  -0.00005  -0.00007  -0.00013
  53        3PY        -0.00050  -0.00045  -0.00057   0.00001  -0.00028
  54        3PZ         0.00000   0.00000   0.00000   0.00000   0.00000
  55 7   H  1S         -0.00004  -0.00033  -0.00010   0.00001  -0.00004
  56        2S          0.00013   0.00159   0.00033  -0.00009   0.00005
  57 8   Cl 1S          0.00000   0.00000   0.00000   0.00000   0.00000
  58        2S         -0.00001  -0.00002   0.00000   0.00000   0.00000
  59        2PX         0.00001   0.00003   0.00000   0.00000   0.00000
  60        2PY        -0.00002  -0.00002   0.00000   0.00000   0.00000
  61        2PZ         0.00000   0.00000   0.00000   0.00000   0.00000
  62        3S          0.00002  -0.00001   0.00000  -0.00003   0.00004
  63        3PX        -0.00007  -0.00015  -0.00002  -0.00001   0.00001
  64        3PY         0.00012   0.00009   0.00002   0.00000  -0.00002
  65        3PZ         0.00000   0.00000   0.00000   0.00000   0.00000
  66        4S          0.00051   0.00078   0.00013   0.00014  -0.00017
  67        4PX        -0.00021  -0.00030  -0.00006  -0.00007   0.00003
  68        4PY         0.00018   0.00032   0.00005   0.00006  -0.00013
  69        4PZ         0.00000   0.00000   0.00000   0.00000   0.00000
  70 9   Cl 1S         -0.00002   0.00000   0.00000   0.00000  -0.28625
  71        2S          0.00006   0.00000   0.00001   0.00001   1.02091
  72        2PX         0.00000  -0.00001  -0.00001  -0.00002  -0.00408
  73        2PY        -0.00002   0.00000  -0.00002  -0.00001  -0.01002
  74        2PZ         0.00000   0.00000   0.00000   0.00000   0.00000
  75        3S         -0.00048  -0.00009  -0.00011  -0.00013   0.03982
  76        3PX        -0.00008   0.00003   0.00006   0.00009  -0.00082
  77        3PY        -0.00014   0.00000   0.00007   0.00003  -0.00177
  78        3PZ         0.00000   0.00000   0.00000   0.00000   0.00000
  79        4S          0.00269   0.00028   0.00033   0.00028  -0.01300
  80        4PX        -0.00073  -0.00006   0.00009  -0.00007   0.00096
  81        4PY        -0.00158  -0.00017  -0.00027  -0.00022   0.00226
  82        4PZ         0.00000   0.00000   0.00000   0.00000   0.00000
  83 10  C  1S         -0.00002  -0.00005   0.00194   0.99421   0.00002
  84        2S         -0.00001  -0.00009  -0.00010   0.03205  -0.00002
  85        2PX        -0.00015  -0.00004  -0.00004   0.00018  -0.00040
  86        2PY         0.00007   0.00012   0.00013  -0.00017  -0.00005
  87        2PZ         0.00000   0.00000   0.00000   0.00000   0.00000
  88        3S         -0.00085  -0.00012   0.00127  -0.01536  -0.00161
  89        3PX        -0.00049   0.00030   0.00066  -0.00072   0.00066
  90        3PY        -0.00003   0.00016  -0.00114   0.00074   0.00044
  91        3PZ         0.00000   0.00000   0.00000   0.00000   0.00000
  92 11  H  1S          0.00004  -0.00001  -0.00015  -0.00006  -0.00022
  93        2S          0.00005   0.00000   0.00049   0.00263   0.00051
  94 12  H  1S          0.00004  -0.00001  -0.00015  -0.00006  -0.00022
  95        2S          0.00005   0.00000   0.00049   0.00263   0.00051
  96 13  H  1S          0.00000  -0.00001  -0.00010  -0.00006   0.00013
  97        2S          0.00000   0.00021  -0.00010   0.00261   0.00069
                          11        12        13        14        15
                           O         O         O         O         O
     Eigenvalues --    -9.47550  -7.25283  -7.24152  -7.24062  -7.23952
   1 1   C  1S         -0.00005  -0.00001   0.00000   0.00000   0.00004
   2        2S         -0.00034  -0.00024   0.00000   0.00004  -0.00009
   3        2PX        -0.00002   0.00005   0.00000   0.00003  -0.00002
   4        2PY         0.00002  -0.00032   0.00000   0.00010   0.00002
   5        2PZ         0.00000   0.00000   0.00003   0.00000   0.00000
   6        3S          0.00229  -0.00068   0.00000   0.00062   0.00099
   7        3PX         0.00010  -0.00085   0.00000   0.00043  -0.00141
   8        3PY        -0.00014   0.00004   0.00000   0.00057   0.00137
   9        3PZ         0.00000   0.00000  -0.00012   0.00000   0.00000
  10 2   N  1S          0.00002  -0.00003   0.00000  -0.00002   0.00001
  11        2S          0.00006  -0.00017   0.00000  -0.00015   0.00004
  12        2PX        -0.00024   0.00006   0.00000  -0.00006  -0.00020
  13        2PY         0.00029   0.00030   0.00000  -0.00024   0.00026
  14        2PZ         0.00000   0.00000  -0.00003   0.00000   0.00000
  15        3S         -0.00109   0.00178   0.00000   0.00025  -0.00084
  16        3PX         0.00120  -0.00099   0.00000   0.00013   0.00124
  17        3PY        -0.00108  -0.00125   0.00000   0.00147  -0.00115
  18        3PZ         0.00000   0.00000   0.00002   0.00000   0.00000
  19 3   C  1S         -0.00001  -0.00002   0.00000   0.00000   0.00001
  20        2S          0.00007   0.00009   0.00000  -0.00006   0.00021
  21        2PX         0.00009   0.00008   0.00000   0.00000   0.00009
  22        2PY        -0.00017  -0.00008   0.00000   0.00003  -0.00028
  23        2PZ         0.00000   0.00000  -0.00015   0.00000   0.00000
  24        3S          0.00141  -0.00223   0.00000  -0.00011   0.00068
  25        3PX         0.00058   0.00054   0.00000  -0.00097   0.00094
  26        3PY        -0.00059   0.00367   0.00000  -0.00019   0.00030
  27        3PZ         0.00000   0.00000   0.00077   0.00000   0.00000
  28 4   C  1S          0.00001  -0.00001   0.00000   0.00001   0.00000
  29        2S          0.00006   0.00006   0.00000   0.00009   0.00001
  30        2PX         0.00006   0.00001   0.00000   0.00002   0.00007
  31        2PY        -0.00006   0.00049   0.00000   0.00006  -0.00007
  32        2PZ         0.00000   0.00000  -0.00004   0.00000   0.00000
  33        3S         -0.00021   0.00206   0.00000  -0.00020   0.00082
  34        3PX        -0.00059   0.00146   0.00000  -0.00098  -0.00006
  35        3PY         0.00069  -0.00486   0.00000  -0.00017   0.00019
  36        3PZ         0.00000   0.00000   0.00000   0.00000   0.00000
  37 5   C  1S         -0.00001   0.00004   0.00000   0.00001   0.00001
  38        2S          0.00007   0.00015   0.00000   0.00005   0.00022
  39        2PX         0.00017  -0.00009   0.00000  -0.00002   0.00026
  40        2PY        -0.00011  -0.00015   0.00000  -0.00001  -0.00011
  41        2PZ         0.00000   0.00000   0.00002   0.00000   0.00000
  42        3S          0.00141  -0.00339   0.00000  -0.00014   0.00069
  43        3PX         0.00056  -0.00090   0.00000   0.00048  -0.00030
  44        3PY        -0.00039  -0.00150   0.00000  -0.00040  -0.00070
  45        3PZ         0.00000   0.00000  -0.00007   0.00000   0.00000
  46 6   N  1S          0.00002   0.00000   0.00000   0.00001   0.00001
  47        2S          0.00005   0.00000   0.00000   0.00004   0.00003
  48        2PX        -0.00028  -0.00004   0.00000  -0.00003  -0.00025
  49        2PY         0.00024  -0.00001   0.00000   0.00002   0.00019
  50        2PZ         0.00000   0.00000  -0.00001   0.00000   0.00000
  51        3S         -0.00101   0.00003   0.00000  -0.00019  -0.00077
  52        3PX         0.00100  -0.00004   0.00000   0.00029   0.00105
  53        3PY        -0.00118   0.00023   0.00000  -0.00021  -0.00121
  54        3PZ         0.00000   0.00000   0.00005   0.00000   0.00000
  55 7   H  1S         -0.00003   0.00003   0.00000   0.00004  -0.00008
  56        2S         -0.00005  -0.00016   0.00000   0.00017  -0.00040
  57 8   Cl 1S         -0.28626   0.00000   0.00000   0.00000   0.00330
  58        2S          1.02094  -0.00001   0.00000   0.00001  -0.01225
  59        2PX        -0.00767  -0.00006   0.00000   0.00025  -0.69578
  60        2PY         0.00774   0.00007   0.00000  -0.00029   0.70351
  61        2PZ         0.00000   0.00000  -0.00001   0.00000   0.00000
  62        3S          0.03955  -0.00007   0.00000   0.00000   0.00131
  63        3PX        -0.00128  -0.00004   0.00000   0.00001  -0.02120
  64        3PY         0.00129   0.00005   0.00000  -0.00003   0.02144
  65        3PZ         0.00000   0.00000  -0.00001   0.00000   0.00000
  66        4S         -0.01281   0.00049   0.00000  -0.00004  -0.00033
  67        4PX         0.00164  -0.00016   0.00000  -0.00004   0.00477
  68        4PY        -0.00164   0.00027   0.00000  -0.00007  -0.00482
  69        4PZ         0.00000   0.00000   0.00004   0.00000   0.00000
  70 9   Cl 1S          0.00000  -0.00328   0.00000  -0.00020   0.00000
  71        2S          0.00001   0.01219   0.00000   0.00076   0.00001
  72        2PX         0.00000   0.31781   0.00000   0.93760   0.00033
  73        2PY         0.00000   0.93703   0.00000  -0.31803  -0.00024
  74        2PZ         0.00000   0.00000   0.99009   0.00000   0.00000
  75        3S          0.00004  -0.00141   0.00000  -0.00031   0.00006
  76        3PX        -0.00001   0.00975   0.00000   0.02698   0.00002
  77        3PY         0.00002   0.02863   0.00000  -0.00912   0.00006
  78        3PZ         0.00000   0.00000   0.02833   0.00000   0.00000
  79        4S         -0.00010  -0.00002   0.00000   0.00063  -0.00045
  80        4PX        -0.00005  -0.00216   0.00000  -0.00609   0.00001
  81        4PY         0.00010  -0.00622   0.00000   0.00168   0.00030
  82        4PZ         0.00000   0.00000  -0.00618   0.00000   0.00000
  83 10  C  1S          0.00001  -0.00003   0.00000   0.00002   0.00001
  84        2S          0.00002  -0.00009   0.00000   0.00018   0.00004
  85        2PX        -0.00004   0.00024   0.00000   0.00030  -0.00002
  86        2PY         0.00002  -0.00006   0.00000   0.00010   0.00001
  87        2PZ         0.00000   0.00000   0.00002   0.00000   0.00000
  88        3S         -0.00049   0.00235   0.00000   0.00004  -0.00034
  89        3PX        -0.00009   0.00057   0.00000  -0.00133  -0.00004
  90        3PY         0.00015  -0.00071   0.00000  -0.00016   0.00011
  91        3PZ         0.00000   0.00000  -0.00028   0.00000   0.00000
  92 11  H  1S          0.00001  -0.00004  -0.00012   0.00029   0.00001
  93        2S          0.00000  -0.00011   0.00051  -0.00047   0.00001
  94 12  H  1S          0.00001  -0.00004   0.00012   0.00029   0.00001
  95        2S          0.00000  -0.00011  -0.00051  -0.00047   0.00001
  96 13  H  1S          0.00001  -0.00010   0.00000  -0.00011   0.00001
  97        2S          0.00009  -0.00020   0.00000  -0.00073   0.00010
                          16        17        18        19        20
                           O         O         O         O         O
     Eigenvalues --    -7.22788  -7.22676  -1.04740  -0.95368  -0.90038
   1 1   C  1S          0.00000   0.00000  -0.11672  -0.02857   0.08363
   2        2S          0.00000   0.00000   0.14200   0.03555  -0.09904
   3        2PX         0.00000  -0.00010  -0.04154  -0.09674  -0.08024
   4        2PY         0.00000  -0.00010   0.05184  -0.08746  -0.01778
   5        2PZ        -0.00015   0.00000   0.00000   0.00000   0.00000
   6        3S          0.00000  -0.00001   0.13446   0.05248  -0.20383
   7        3PX         0.00000  -0.00049   0.04018   0.01672  -0.04402
   8        3PY         0.00000  -0.00048  -0.04108  -0.00568   0.03896
   9        3PZ         0.00079   0.00000   0.00000   0.00000   0.00000
  10 2   N  1S          0.00000  -0.00002  -0.13151   0.11548   0.06589
  11        2S          0.00000  -0.00013   0.12658  -0.11872  -0.06926
  12        2PX         0.00000  -0.00016  -0.08696   0.07123   0.01445
  13        2PY         0.00000   0.00017  -0.02666  -0.02863   0.07556
  14        2PZ        -0.00003   0.00000   0.00000   0.00000   0.00000
  15        3S          0.00000   0.00020   0.40812  -0.35591  -0.19768
  16        3PX         0.00000   0.00070  -0.11959   0.07280   0.03121
  17        3PY         0.00000  -0.00112  -0.01866  -0.00444   0.02783
  18        3PZ         0.00000   0.00000   0.00000   0.00000   0.00000
  19 3   C  1S          0.00000   0.00000  -0.08261   0.10268  -0.06558
  20        2S          0.00000   0.00004   0.10030  -0.12189   0.07603
  21        2PX         0.00000   0.00007   0.02806  -0.05916  -0.04415
  22        2PY         0.00000  -0.00006  -0.05979   0.02922   0.06167
  23        2PZ         0.00003   0.00000   0.00000   0.00000   0.00000
  24        3S          0.00000   0.00046   0.06040  -0.21698   0.17842
  25        3PX         0.00000   0.00064  -0.00487   0.02012   0.00545
  26        3PY         0.00000  -0.00035   0.07071  -0.07396   0.04967
  27        3PZ        -0.00011   0.00000   0.00000   0.00000   0.00000
  28 4   C  1S          0.00000   0.00000  -0.04519   0.00806  -0.08181
  29        2S          0.00000  -0.00001   0.04775  -0.01128   0.09883
  30        2PX         0.00000  -0.00002   0.02729  -0.03572   0.01910
  31        2PY         0.00000  -0.00002  -0.01894  -0.03870  -0.01056
  32        2PZ         0.00000   0.00000   0.00000   0.00000   0.00000
  33        3S          0.00000   0.00010   0.11024  -0.00795   0.14848
  34        3PX         0.00000   0.00031   0.07247   0.02629   0.01096
  35        3PY         0.00000   0.00028  -0.09172   0.04441  -0.02179
  36        3PZ         0.00004   0.00000   0.00000   0.00000   0.00000
  37 5   C  1S          0.00000   0.00000  -0.06322  -0.07865  -0.07551
  38        2S          0.00000  -0.00004   0.07773   0.09488   0.09420
  39        2PX         0.00000  -0.00006   0.05608   0.06524   0.03744
  40        2PY         0.00000   0.00008  -0.01689  -0.05625   0.00574
  41        2PZ         0.00003   0.00000   0.00000   0.00000   0.00000
  42        3S          0.00000  -0.00049   0.00932   0.14116   0.12589
  43        3PX         0.00000  -0.00035  -0.04352  -0.02885  -0.00097
  44        3PY         0.00000   0.00052  -0.00678   0.03029   0.00217
  45        3PZ        -0.00010   0.00000   0.00000   0.00000   0.00000
  46 6   N  1S          0.00000   0.00002  -0.11313  -0.14609  -0.04135
  47        2S          0.00000   0.00014   0.10846   0.14965   0.04327
  48        2PX         0.00000   0.00016   0.03169   0.01056  -0.05156
  49        2PY         0.00000  -0.00016   0.07516   0.08608   0.04486
  50        2PZ        -0.00003   0.00000   0.00000   0.00000   0.00000
  51        3S          0.00000  -0.00025   0.34720   0.44221   0.12745
  52        3PX         0.00000  -0.00109   0.02167   0.01147  -0.01447
  53        3PY         0.00000   0.00071   0.10432   0.09274   0.02718
  54        3PZ         0.00000   0.00000   0.00000   0.00000   0.00000
  55 7   H  1S          0.00000   0.00001   0.01278   0.02113   0.02688
  56        2S          0.00000   0.00001  -0.01385  -0.01277  -0.00220
  57 8   Cl 1S          0.00000   0.00000   0.00923   0.00506  -0.03327
  58        2S          0.00000   0.00001  -0.06179  -0.03412   0.22566
  59        2PX         0.00000   0.70396   0.01265   0.00833  -0.02562
  60        2PY         0.00000   0.69623  -0.01297  -0.00241   0.02943
  61        2PZ         0.99009   0.00000   0.00000   0.00000   0.00000
  62        3S          0.00000   0.00000   0.08611   0.04858  -0.31730
  63        3PX         0.00000   0.02014  -0.02429  -0.01627   0.05488
  64        3PY         0.00000   0.01991   0.02480   0.00577  -0.06222
  65        3PZ         0.02833   0.00000   0.00000   0.00000   0.00000
  66        4S          0.00000   0.00001   0.00769   0.01250  -0.13062
  67        4PX         0.00000  -0.00430   0.01025  -0.00572  -0.01091
  68        4PY         0.00000  -0.00425  -0.00912  -0.01246   0.00337
  69        4PZ        -0.00615   0.00000   0.00000   0.00000   0.00000
  70 9   Cl 1S          0.00000   0.00000   0.00694  -0.02162   0.03365
  71        2S          0.00000   0.00000  -0.04652   0.14609  -0.22843
  72        2PX         0.00000   0.00003   0.00317  -0.00808   0.01510
  73        2PY         0.00000  -0.00002   0.01265  -0.02928   0.03265
  74        2PZ         0.00002   0.00000   0.00000   0.00000   0.00000
  75        3S          0.00000   0.00000   0.06452  -0.20520   0.32029
  76        3PX         0.00000  -0.00001  -0.00625   0.01645  -0.03183
  77        3PY         0.00000   0.00001  -0.02352   0.05938  -0.07012
  78        3PZ        -0.00001   0.00000   0.00000   0.00000   0.00000
  79        4S          0.00000  -0.00003   0.00280  -0.06263   0.14206
  80        4PX         0.00000  -0.00006   0.01028  -0.01162  -0.00375
  81        4PY         0.00000   0.00004   0.00937  -0.01247   0.00897
  82        4PZ         0.00004   0.00000   0.00000   0.00000   0.00000
  83 10  C  1S          0.00000   0.00000  -0.00743   0.00450  -0.03605
  84        2S          0.00000  -0.00001   0.00378  -0.00403   0.03783
  85        2PX         0.00000  -0.00001   0.00728  -0.00633   0.01813
  86        2PY         0.00000  -0.00001  -0.00647  -0.00169  -0.01562
  87        2PZ         0.00000   0.00000   0.00000   0.00000   0.00000
  88        3S          0.00000   0.00003   0.06756  -0.01738   0.09388
  89        3PX         0.00000  -0.00001   0.01814  -0.00869   0.01160
  90        3PY         0.00000   0.00001  -0.01650   0.00118  -0.00076
  91        3PZ         0.00000   0.00000   0.00000   0.00000   0.00000
  92 11  H  1S          0.00000   0.00000   0.00079  -0.00232   0.01537
  93        2S          0.00000  -0.00001  -0.00240  -0.00051  -0.00505
  94 12  H  1S          0.00000   0.00000   0.00079  -0.00232   0.01537
  95        2S          0.00000  -0.00001  -0.00240  -0.00051  -0.00505
  96 13  H  1S          0.00000   0.00001   0.00129   0.00035   0.01495
  97        2S          0.00000  -0.00003  -0.00431  -0.00162  -0.00024
                          21        22        23        24        25
                           O         O         O         O         O
     Eigenvalues --    -0.86263  -0.82442  -0.73260  -0.68612  -0.65459
   1 1   C  1S         -0.03345   0.01836  -0.07451   0.01779  -0.09893
   2        2S          0.03371  -0.02417   0.09346  -0.02213   0.12380
   3        2PX         0.03449   0.07783  -0.05795   0.15082   0.04250
   4        2PY        -0.12080  -0.02257   0.02595   0.13086   0.09051
   5        2PZ         0.00000   0.00000   0.00000   0.00000   0.00000
   6        3S          0.13090  -0.00074   0.17292  -0.05073   0.29266
   7        3PX         0.04564   0.03529  -0.02486   0.05746   0.00396
   8        3PY        -0.05255  -0.02826   0.01684   0.02923   0.05039
   9        3PZ         0.00000   0.00000   0.00000   0.00000   0.00000
  10 2   N  1S          0.06965   0.02158  -0.01203  -0.05968   0.02666
  11        2S         -0.07270  -0.02179   0.01115   0.06531  -0.02836
  12        2PX         0.06100   0.00758   0.01632   0.03316   0.04822
  13        2PY         0.00246  -0.00479  -0.08679  -0.09204  -0.24467
  14        2PZ         0.00000   0.00000   0.00000   0.00000   0.00000
  15        3S         -0.21944  -0.07200   0.04690   0.20478  -0.09713
  16        3PX         0.04386   0.01227   0.00263   0.00513   0.03346
  17        3PY         0.00991   0.00550  -0.04990  -0.07083  -0.14438
  18        3PZ         0.00000   0.00000   0.00000   0.00000   0.00000
  19 3   C  1S         -0.00692  -0.02357   0.05609   0.10155   0.06176
  20        2S          0.00070   0.03327  -0.06777  -0.12322  -0.07244
  21        2PX        -0.01226  -0.11280   0.01283   0.11940  -0.19329
  22        2PY         0.12382  -0.04111   0.04978   0.02140   0.05117
  23        2PZ         0.00000   0.00000   0.00000   0.00000   0.00000
  24        3S          0.06936   0.02725  -0.16439  -0.29795  -0.20727
  25        3PX         0.00776  -0.03456   0.01904   0.08806  -0.06359
  26        3PY         0.07266  -0.04519   0.04214   0.00610   0.02374
  27        3PZ         0.00000   0.00000   0.00000   0.00000   0.00000
  28 4   C  1S          0.01179  -0.14410   0.02718   0.04172  -0.08137
  29        2S         -0.01367   0.17051  -0.03663  -0.04937   0.09354
  30        2PX        -0.00437  -0.01107  -0.09155  -0.16313   0.01822
  31        2PY         0.03371  -0.00585   0.12048  -0.09480  -0.06919
  32        2PZ         0.00000   0.00000   0.00000   0.00000   0.00000
  33        3S         -0.02281   0.29415  -0.04030  -0.12110   0.26469
  34        3PX        -0.00143  -0.00523   0.00429  -0.03119   0.02511
  35        3PY        -0.01827   0.01810   0.01103   0.00855  -0.03571
  36        3PZ         0.00000   0.00000   0.00000   0.00000   0.00000
  37 5   C  1S          0.02238  -0.04869   0.08581  -0.12142  -0.00187
  38        2S         -0.02715   0.05958  -0.10281   0.14334   0.00507
  39        2PX        -0.01270  -0.02344  -0.01775  -0.05824  -0.01250
  40        2PY        -0.00885   0.10941  -0.01870  -0.03597   0.16611
  41        2PZ         0.00000   0.00000   0.00000   0.00000   0.00000
  42        3S         -0.06421   0.11723  -0.23231   0.36349  -0.01064
  43        3PX        -0.00838   0.01341  -0.03809  -0.02322  -0.00516
  44        3PY        -0.01146   0.03292  -0.02136   0.03473   0.05254
  45        3PZ         0.00000   0.00000   0.00000   0.00000   0.00000
  46 6   N  1S         -0.00963   0.06389  -0.02741   0.03199   0.05420
  47        2S          0.01113  -0.06609   0.02740  -0.03626  -0.05746
  48        2PX         0.03408  -0.02779   0.11333  -0.17314   0.10369
  49        2PY        -0.02064  -0.02626  -0.01604   0.02710  -0.01114
  50        2PZ         0.00000   0.00000   0.00000   0.00000   0.00000
  51        3S          0.02636  -0.20864   0.10240  -0.10717  -0.19954
  52        3PX         0.01094  -0.02493   0.06662  -0.11565   0.05832
  53        3PY        -0.00332  -0.03351   0.00292   0.00737  -0.02064
  54        3PZ         0.00000   0.00000   0.00000   0.00000   0.00000
  55 7   H  1S         -0.00737   0.02555  -0.04667   0.10912  -0.01346
  56        2S         -0.00084   0.01242  -0.01957   0.04742  -0.01206
  57 8   Cl 1S          0.04625   0.02659  -0.02221   0.00284  -0.01943
  58        2S         -0.31463  -0.18138   0.15262  -0.01954   0.13435
  59        2PX         0.03092   0.00945   0.00775  -0.01318   0.01793
  60        2PY        -0.02755  -0.01209  -0.00574  -0.00830  -0.02939
  61        2PZ         0.00000   0.00000   0.00000   0.00000   0.00000
  62        3S          0.43952   0.25349  -0.20865   0.02651  -0.17881
  63        3PX        -0.06711  -0.02170  -0.01464   0.02819  -0.03740
  64        3PY         0.06049   0.02707   0.01040   0.01760   0.06195
  65        3PZ         0.00000   0.00000   0.00000   0.00000   0.00000
  66        4S          0.21607   0.13461  -0.15174   0.01754  -0.16089
  67        4PX        -0.00073   0.00451  -0.00193   0.01326  -0.00388
  68        4PY        -0.00548  -0.00070  -0.00026   0.00802   0.01389
  69        4PZ         0.00000   0.00000   0.00000   0.00000   0.00000
  70 9   Cl 1S          0.04452  -0.02585   0.00781   0.01976   0.01580
  71        2S         -0.30318   0.17657  -0.05378  -0.13654  -0.10929
  72        2PX         0.01447   0.00148   0.00243  -0.01563   0.00608
  73        2PY         0.03159  -0.01339  -0.00841  -0.02291  -0.03346
  74        2PZ         0.00000   0.00000   0.00000   0.00000   0.00000
  75        3S          0.42122  -0.24428   0.07111   0.18394   0.14721
  76        3PX        -0.03097  -0.00267  -0.00535   0.03183  -0.01374
  77        3PY        -0.06944   0.02966   0.01733   0.04615   0.07023
  78        3PZ         0.00000   0.00000   0.00000   0.00000   0.00000
  79        4S          0.21960  -0.13740   0.05707   0.15977   0.13278
  80        4PX        -0.00618  -0.00357  -0.00612   0.00518  -0.01018
  81        4PY         0.00227   0.00083   0.00476   0.00624   0.01663
  82        4PZ         0.00000   0.00000   0.00000   0.00000   0.00000
  83 10  C  1S         -0.00540  -0.10767  -0.16027  -0.03129   0.07107
  84        2S          0.00415   0.11677   0.17023   0.03418  -0.07667
  85        2PX         0.00411   0.02926  -0.00800  -0.03798   0.03961
  86        2PY         0.00273  -0.03463   0.01460  -0.00974  -0.04523
  87        2PZ         0.00000   0.00000   0.00000   0.00000   0.00000
  88        3S          0.02662   0.26092   0.47684   0.09160  -0.22276
  89        3PX         0.01254   0.00220   0.00935  -0.02381   0.01771
  90        3PY        -0.00021  -0.00541  -0.00421  -0.01446  -0.01876
  91        3PZ         0.00000   0.00000   0.00000   0.00000   0.00000
  92 11  H  1S          0.00328   0.05116   0.09696   0.01574  -0.05611
  93        2S         -0.00010  -0.00527   0.01449   0.00547  -0.01834
  94 12  H  1S          0.00328   0.05116   0.09696   0.01574  -0.05611
  95        2S         -0.00010  -0.00527   0.01449   0.00547  -0.01834
  96 13  H  1S          0.00081   0.05338   0.09395   0.03876  -0.05503
  97        2S          0.00206   0.00106   0.01548   0.01396  -0.01529
                          26        27        28        29        30
                           O         O         O         O         O
     Eigenvalues --    -0.57239  -0.53189  -0.48221  -0.45855  -0.45722
   1 1   C  1S         -0.01806   0.04935   0.00000  -0.00777  -0.02264
   2        2S          0.02200  -0.05303   0.00000   0.00955   0.01925
   3        2PX        -0.15472  -0.09358   0.00000  -0.02026   0.15883
   4        2PY        -0.16836   0.10846   0.00000  -0.07928  -0.12246
   5        2PZ         0.00000   0.00000   0.18024   0.00000   0.00000
   6        3S          0.06286  -0.20676   0.00000   0.04822   0.14150
   7        3PX        -0.07833  -0.09425   0.00000  -0.02968   0.15175
   8        3PY        -0.09251   0.11183   0.00000  -0.10132  -0.10756
   9        3PZ         0.00000   0.00000   0.16520   0.00000   0.00000
  10 2   N  1S         -0.00157   0.00256   0.00000   0.01285   0.03187
  11        2S          0.00309   0.00154   0.00000  -0.01757  -0.03005
  12        2PX        -0.04226  -0.08031   0.00000  -0.11343   0.03109
  13        2PY         0.18642  -0.00228   0.00000   0.04773   0.03318
  14        2PZ         0.00000   0.00000   0.17802   0.00000   0.00000
  15        3S         -0.00179  -0.02269   0.00000  -0.02080  -0.15330
  16        3PX        -0.02300  -0.04698   0.00000  -0.08851   0.02363
  17        3PY         0.11262   0.00050   0.00000   0.04046   0.03297
  18        3PZ         0.00000   0.00000   0.14651   0.00000   0.00000
  19 3   C  1S          0.01793   0.04878   0.00000  -0.01212  -0.03151
  20        2S         -0.02001  -0.05024   0.00000   0.02476   0.03681
  21        2PX         0.21157  -0.01130   0.00000  -0.11347  -0.00583
  22        2PY        -0.07277  -0.15665   0.00000  -0.22779  -0.00774
  23        2PZ         0.00000   0.00000   0.19088   0.00000   0.00000
  24        3S         -0.05926  -0.21184   0.00000   0.00163   0.11928
  25        3PX         0.12783  -0.01999   0.00000  -0.14338   0.00873
  26        3PY        -0.04517  -0.16138   0.00000  -0.23080  -0.00491
  27        3PZ         0.00000   0.00000   0.17160   0.00000   0.00000
  28 4   C  1S         -0.01506  -0.00409   0.00000   0.01949   0.03798
  29        2S          0.01528   0.00879   0.00000  -0.01974  -0.03909
  30        2PX        -0.17224   0.03496   0.00000   0.16023   0.15038
  31        2PY        -0.16820  -0.11988   0.00000   0.04321  -0.20926
  32        2PZ         0.00000   0.00000   0.16680   0.00000   0.00000
  33        3S          0.07649  -0.01528   0.00000  -0.11488  -0.16731
  34        3PX        -0.08086   0.03230   0.00000   0.05926   0.12114
  35        3PY        -0.09408  -0.04055   0.00000   0.04580  -0.15337
  36        3PZ         0.00000   0.00000   0.12352   0.00000   0.00000
  37 5   C  1S         -0.01479   0.02695   0.00000  -0.00965  -0.03078
  38        2S          0.01823  -0.02805   0.00000   0.00643   0.03930
  39        2PX        -0.10499   0.21807   0.00000  -0.20609   0.14051
  40        2PY         0.24081   0.08832   0.00000  -0.08904   0.05848
  41        2PZ         0.00000   0.00000   0.13024   0.00000   0.00000
  42        3S          0.03146  -0.09617   0.00000   0.07823   0.08651
  43        3PX        -0.06187   0.15334   0.00000  -0.13769   0.10888
  44        3PY         0.09936   0.07522   0.00000  -0.06916   0.05326
  45        3PZ         0.00000   0.00000   0.11189   0.00000   0.00000
  46 6   N  1S          0.01802   0.00771   0.00000   0.00941   0.03080
  47        2S         -0.01866  -0.00660   0.00000  -0.00504  -0.03242
  48        2PX         0.23232  -0.00419   0.00000   0.03541  -0.06640
  49        2PY        -0.06575   0.10612   0.00000  -0.10172   0.03559
  50        2PZ         0.00000   0.00000   0.14452   0.00000   0.00000
  51        3S         -0.07514  -0.02262   0.00000  -0.07660  -0.12098
  52        3PX         0.14530   0.00130   0.00000   0.01102  -0.05485
  53        3PY        -0.04379   0.07112   0.00000  -0.08496   0.03322
  54        3PZ         0.00000   0.00000   0.12013   0.00000   0.00000
  55 7   H  1S          0.02875  -0.15234   0.00000   0.15759  -0.06291
  56        2S          0.01381  -0.09034   0.00000   0.12386  -0.04279
  57 8   Cl 1S         -0.00377   0.01768   0.00000  -0.00317  -0.01310
  58        2S          0.02625  -0.12345   0.00000   0.02232   0.09193
  59        2PX         0.02916  -0.06872   0.00000   0.04485   0.09592
  60        2PY         0.00860   0.06595   0.00000  -0.00482  -0.11032
  61        2PZ         0.00000   0.00000  -0.04019   0.00000   0.00000
  62        3S         -0.03364   0.15745   0.00000  -0.02428  -0.10635
  63        3PX        -0.06314   0.14704   0.00000  -0.09784  -0.20989
  64        3PY        -0.01917  -0.14106   0.00000   0.01057   0.24136
  65        3PZ         0.00000   0.00000   0.08721   0.00000   0.00000
  66        4S         -0.04147   0.22332   0.00000  -0.05879  -0.21307
  67        4PX        -0.02105   0.03906   0.00000  -0.04108  -0.07818
  68        4PY        -0.01169  -0.03655   0.00000  -0.00662   0.09512
  69        4PZ         0.00000   0.00000   0.04502   0.00000   0.00000
  70 9   Cl 1S          0.00414   0.01733   0.00000   0.01188  -0.00198
  71        2S         -0.02884  -0.12115   0.00000  -0.08342   0.01396
  72        2PX        -0.03523  -0.03655   0.00000  -0.02393  -0.00500
  73        2PY        -0.00360  -0.09930   0.00000  -0.15313   0.03124
  74        2PZ         0.00000   0.00000  -0.05173   0.00000   0.00000
  75        3S          0.04016   0.15231   0.00000   0.09382  -0.01565
  76        3PX         0.07579   0.07879   0.00000   0.05283   0.01139
  77        3PY         0.00660   0.21293   0.00000   0.33478  -0.06868
  78        3PZ         0.00000   0.00000   0.11194   0.00000   0.00000
  79        4S          0.03791   0.23106   0.00000   0.21767  -0.03290
  80        4PX         0.03224   0.01992   0.00000   0.00897   0.00850
  81        4PY         0.00104   0.06019   0.00000   0.13257  -0.03008
  82        4PZ         0.00000   0.00000   0.06482   0.00000   0.00000
  83 10  C  1S          0.00695  -0.01935   0.00000  -0.00043  -0.01230
  84        2S         -0.00722   0.01870   0.00000   0.00176   0.00832
  85        2PX        -0.05062  -0.05612   0.00000   0.01101  -0.20355
  86        2PY        -0.07489   0.04563   0.00000   0.13260   0.15125
  87        2PZ         0.00000   0.00000   0.18266   0.00000   0.00000
  88        3S         -0.02646   0.07484   0.00000  -0.01426   0.08498
  89        3PX        -0.03250  -0.03932   0.00000   0.00896  -0.12981
  90        3PY        -0.04776   0.02386   0.00000   0.09593   0.08659
  91        3PZ         0.00000   0.00000   0.13019   0.00000   0.00000
  92 11  H  1S         -0.03177   0.02728   0.09627   0.05201   0.05339
  93        2S         -0.01781   0.01620   0.07770   0.04612   0.04661
  94 12  H  1S         -0.03177   0.02728  -0.09627   0.05201   0.05339
  95        2S         -0.01781   0.01620  -0.07770   0.04612   0.04661
  96 13  H  1S          0.03921   0.02871   0.00000  -0.03887   0.08821
  97        2S          0.02910   0.00602   0.00000  -0.02082   0.06898
                          31        32        33        34        35
                           O         O         O         O         O
     Eigenvalues --    -0.44422  -0.44177  -0.42834  -0.38910  -0.35118
   1 1   C  1S          0.00000   0.02637  -0.01049   0.00000   0.00000
   2        2S          0.00000  -0.04113   0.01506   0.00000   0.00000
   3        2PX         0.00000   0.14323  -0.06039   0.00000   0.00000
   4        2PY         0.00000  -0.14091   0.01303   0.00000   0.00000
   5        2PZ        -0.18438   0.00000   0.00000  -0.13638   0.10112
   6        3S          0.00000  -0.05729   0.02717   0.00000   0.00000
   7        3PX         0.00000   0.16518  -0.04201   0.00000   0.00000
   8        3PY         0.00000  -0.14322   0.04156   0.00000   0.00000
   9        3PZ        -0.17300   0.00000   0.00000  -0.13652   0.10404
  10 2   N  1S          0.00000  -0.04161  -0.00154   0.00000   0.00000
  11        2S          0.00000   0.04600   0.00222   0.00000   0.00000
  12        2PX         0.00000   0.07477   0.01755   0.00000   0.00000
  13        2PY         0.00000   0.13160   0.00567   0.00000   0.00000
  14        2PZ        -0.13717   0.00000   0.00000   0.08509   0.10786
  15        3S          0.00000   0.14740   0.00197   0.00000   0.00000
  16        3PX         0.00000   0.06406   0.00891   0.00000   0.00000
  17        3PY         0.00000   0.10092   0.00479   0.00000   0.00000
  18        3PZ        -0.12142   0.00000   0.00000   0.08255   0.10856
  19 3   C  1S          0.00000   0.03626   0.01950   0.00000   0.00000
  20        2S          0.00000  -0.03871  -0.02392   0.00000   0.00000
  21        2PX         0.00000   0.07639   0.09232   0.00000   0.00000
  22        2PY         0.00000  -0.09444   0.07208   0.00000   0.00000
  23        2PZ        -0.05405   0.00000   0.00000   0.22900  -0.00741
  24        3S          0.00000  -0.17725  -0.09008   0.00000   0.00000
  25        3PX         0.00000   0.09637   0.08694   0.00000   0.00000
  26        3PY         0.00000  -0.12794   0.09048   0.00000   0.00000
  27        3PZ        -0.05682   0.00000   0.00000   0.23084  -0.00132
  28 4   C  1S          0.00000  -0.05912   0.01610   0.00000   0.00000
  29        2S          0.00000   0.06238  -0.01999   0.00000   0.00000
  30        2PX         0.00000  -0.11134  -0.04510   0.00000   0.00000
  31        2PY         0.00000   0.07048  -0.10749   0.00000   0.00000
  32        2PZ         0.05606   0.00000   0.00000   0.04178  -0.14752
  33        3S          0.00000   0.26374  -0.04531   0.00000   0.00000
  34        3PX         0.00000  -0.07496   0.02658   0.00000   0.00000
  35        3PY         0.00000   0.12756  -0.05546   0.00000   0.00000
  36        3PZ         0.05087   0.00000   0.00000   0.02862  -0.14144
  37 5   C  1S          0.00000   0.01784  -0.04032   0.00000   0.00000
  38        2S          0.00000  -0.02221   0.04811   0.00000   0.00000
  39        2PX         0.00000   0.14792  -0.00760   0.00000   0.00000
  40        2PY         0.00000  -0.01545   0.11583   0.00000   0.00000
  41        2PZ        -0.03887   0.00000   0.00000  -0.09024  -0.25703
  42        3S          0.00000  -0.03844   0.16133   0.00000   0.00000
  43        3PX         0.00000   0.12449   0.00446   0.00000   0.00000
  44        3PY         0.00000  -0.01256   0.08035   0.00000   0.00000
  45        3PZ        -0.04358   0.00000   0.00000  -0.08996  -0.25480
  46 6   N  1S          0.00000  -0.03574   0.02908   0.00000   0.00000
  47        2S          0.00000   0.03634  -0.02990   0.00000   0.00000
  48        2PX         0.00000  -0.12367   0.08093   0.00000   0.00000
  49        2PY         0.00000  -0.03040   0.04599   0.00000   0.00000
  50        2PZ        -0.12390   0.00000   0.00000  -0.17712  -0.17610
  51        3S          0.00000   0.15356  -0.12247   0.00000   0.00000
  52        3PX         0.00000  -0.08482   0.06870   0.00000   0.00000
  53        3PY         0.00000  -0.02079   0.03160   0.00000   0.00000
  54        3PZ        -0.10837   0.00000   0.00000  -0.17031  -0.18616
  55 7   H  1S          0.00000  -0.12378   0.01840   0.00000   0.00000
  56        2S          0.00000  -0.10625  -0.00271   0.00000   0.00000
  57 8   Cl 1S          0.00000  -0.00860   0.00182   0.00000   0.00000
  58        2S          0.00000   0.06047  -0.01282   0.00000   0.00000
  59        2PX         0.00000   0.07295  -0.01649   0.00000   0.00000
  60        2PY         0.00000  -0.07881   0.02021   0.00000   0.00000
  61        2PZ         0.05634   0.00000   0.00000   0.08562  -0.18647
  62        3S          0.00000  -0.07151   0.01500   0.00000   0.00000
  63        3PX         0.00000  -0.15877   0.03540   0.00000   0.00000
  64        3PY         0.00000   0.17140  -0.04432   0.00000   0.00000
  65        3PZ        -0.12261   0.00000   0.00000  -0.18772   0.41095
  66        4S          0.00000  -0.15562   0.03627   0.00000   0.00000
  67        4PX         0.00000  -0.06043   0.01455   0.00000   0.00000
  68        4PY         0.00000   0.06741  -0.01706   0.00000   0.00000
  69        4PZ        -0.07206   0.00000   0.00000  -0.12600   0.29933
  70 9   Cl 1S          0.00000   0.00554  -0.00507   0.00000   0.00000
  71        2S          0.00000  -0.03911   0.03553   0.00000   0.00000
  72        2PX         0.00000  -0.05370   0.03274   0.00000   0.00000
  73        2PY         0.00000  -0.08062   0.05531   0.00000   0.00000
  74        2PZ         0.00791   0.00000   0.00000  -0.18408  -0.02858
  75        3S          0.00000   0.03894  -0.04702   0.00000   0.00000
  76        3PX         0.00000   0.11712  -0.07155   0.00000   0.00000
  77        3PY         0.00000   0.17675  -0.12204   0.00000   0.00000
  78        3PZ        -0.01814   0.00000   0.00000   0.40434   0.06249
  79        4S          0.00000   0.11943  -0.07058   0.00000   0.00000
  80        4PX         0.00000   0.05412  -0.04874   0.00000   0.00000
  81        4PY         0.00000   0.06839  -0.05189   0.00000   0.00000
  82        4PZ        -0.00259   0.00000   0.00000   0.27906   0.05109
  83 10  C  1S          0.00000  -0.00141   0.00012   0.00000   0.00000
  84        2S          0.00000   0.00591  -0.00229   0.00000   0.00000
  85        2PX         0.00000   0.20592   0.20512   0.00000   0.00000
  86        2PY         0.00000  -0.05046   0.28815   0.00000   0.00000
  87        2PZ         0.32031   0.00000   0.00000  -0.08560   0.08051
  88        3S          0.00000  -0.03901   0.01942   0.00000   0.00000
  89        3PX         0.00000   0.11952   0.16662   0.00000   0.00000
  90        3PY         0.00000  -0.01329   0.21296   0.00000   0.00000
  91        3PZ         0.24999   0.00000   0.00000  -0.07379   0.06646
  92 11  H  1S          0.18015  -0.00292   0.13092  -0.04992   0.05708
  93        2S          0.14817  -0.00942   0.11495  -0.03465   0.06076
  94 12  H  1S         -0.18015  -0.00292   0.13092   0.04992  -0.05708
  95        2S         -0.14817  -0.00942   0.11495   0.03465  -0.06076
  96 13  H  1S          0.00000  -0.11912  -0.22313   0.00000   0.00000
  97        2S          0.00000  -0.11921  -0.19626   0.00000   0.00000
                          36        37        38        39        40
                           O         O         O         O         O
     Eigenvalues --    -0.33995  -0.32777  -0.32651  -0.31790  -0.28123
   1 1   C  1S         -0.01419   0.04170  -0.01172   0.00000   0.00000
   2        2S          0.01910  -0.05580   0.01587   0.00000   0.00000
   3        2PX        -0.01915  -0.00519  -0.04957   0.00000   0.00000
   4        2PY         0.02974  -0.04305  -0.04022   0.00000   0.00000
   5        2PZ         0.00000   0.00000   0.00000  -0.03876  -0.19971
   6        3S          0.05185  -0.18568   0.05569   0.00000   0.00000
   7        3PX        -0.01176   0.06197   0.07576   0.00000   0.00000
   8        3PY         0.05232  -0.00391   0.08628   0.00000   0.00000
   9        3PZ         0.00000   0.00000   0.00000  -0.03710  -0.19838
  10 2   N  1S          0.02685  -0.07756   0.03228   0.00000   0.00000
  11        2S         -0.01863   0.07611  -0.02517   0.00000   0.00000
  12        2PX         0.02546   0.29053  -0.06568   0.00000   0.00000
  13        2PY        -0.04292   0.01190   0.08861   0.00000   0.00000
  14        2PZ         0.00000   0.00000   0.00000  -0.26698  -0.08637
  15        3S         -0.19937   0.32727  -0.20237   0.00000   0.00000
  16        3PX         0.05694   0.30013  -0.05400   0.00000   0.00000
  17        3PY        -0.05803  -0.00072   0.13928   0.00000   0.00000
  18        3PZ         0.00000   0.00000   0.00000  -0.29270  -0.09269
  19 3   C  1S         -0.00624   0.01236  -0.01422   0.00000   0.00000
  20        2S          0.01273  -0.01631   0.01707   0.00000   0.00000
  21        2PX        -0.05723  -0.12159   0.05723   0.00000   0.00000
  22        2PY        -0.00025   0.04325  -0.04624   0.00000   0.00000
  23        2PZ         0.00000   0.00000   0.00000  -0.13350   0.15837
  24        3S         -0.01604  -0.05077   0.07203   0.00000   0.00000
  25        3PX         0.12428   0.01167  -0.04934   0.00000   0.00000
  26        3PY        -0.02788   0.04688  -0.05116   0.00000   0.00000
  27        3PZ         0.00000   0.00000   0.00000  -0.12752   0.13726
  28 4   C  1S         -0.01470  -0.02762   0.01458   0.00000   0.00000
  29        2S          0.00990   0.02524  -0.01277   0.00000   0.00000
  30        2PX         0.07160   0.11485  -0.03396   0.00000   0.00000
  31        2PY         0.04794  -0.10961   0.04231   0.00000   0.00000
  32        2PZ         0.00000   0.00000   0.00000  -0.01531   0.26643
  33        3S          0.16911   0.23977  -0.13351   0.00000   0.00000
  34        3PX         0.13375   0.08804  -0.05963   0.00000   0.00000
  35        3PY         0.04759  -0.08569   0.02778   0.00000   0.00000
  36        3PZ         0.00000   0.00000   0.00000  -0.01804   0.29292
  37 5   C  1S          0.00645   0.01516   0.00049   0.00000   0.00000
  38        2S         -0.00673  -0.01936  -0.00098   0.00000   0.00000
  39        2PX        -0.04379  -0.04901  -0.02611   0.00000   0.00000
  40        2PY        -0.03449   0.12340  -0.02591   0.00000   0.00000
  41        2PZ         0.00000   0.00000   0.00000   0.11398   0.11622
  42        3S         -0.02857  -0.05136  -0.00276   0.00000   0.00000
  43        3PX        -0.07025  -0.06619  -0.01313   0.00000   0.00000
  44        3PY        -0.02300  -0.02336   0.00785   0.00000   0.00000
  45        3PZ         0.00000   0.00000   0.00000   0.11482   0.10255
  46 6   N  1S          0.00404  -0.07401   0.01093   0.00000   0.00000
  47        2S         -0.00637   0.06766  -0.01730   0.00000   0.00000
  48        2PX         0.03073   0.05898   0.06485   0.00000   0.00000
  49        2PY         0.01379  -0.23089   0.10267   0.00000   0.00000
  50        2PZ         0.00000   0.00000   0.00000   0.13195  -0.16836
  51        3S          0.00273   0.36126   0.01969   0.00000   0.00000
  52        3PX         0.02810   0.10464   0.08812   0.00000   0.00000
  53        3PY         0.02218  -0.23011   0.12174   0.00000   0.00000
  54        3PZ         0.00000   0.00000   0.00000   0.14425  -0.18632
  55 7   H  1S          0.03856  -0.01537   0.03279   0.00000   0.00000
  56        2S          0.03149  -0.03811   0.04349   0.00000   0.00000
  57 8   Cl 1S          0.00022  -0.00087   0.00029   0.00000   0.00000
  58        2S         -0.00158   0.00608  -0.00200   0.00000   0.00000
  59        2PX        -0.05896  -0.11836  -0.17037   0.00000   0.00000
  60        2PY        -0.03131   0.00470  -0.21060   0.00000   0.00000
  61        2PZ         0.00000   0.00000   0.00000  -0.11478  -0.15731
  62        3S          0.00045  -0.03423   0.01139   0.00000   0.00000
  63        3PX         0.13057   0.26670   0.37725   0.00000   0.00000
  64        3PY         0.06993  -0.01474   0.46889   0.00000   0.00000
  65        3PZ         0.00000   0.00000   0.00000   0.25442   0.35149
  66        4S          0.01494   0.04313  -0.01662   0.00000   0.00000
  67        4PX         0.08680   0.16616   0.27640   0.00000   0.00000
  68        4PY         0.05339   0.01369   0.32453   0.00000   0.00000
  69        4PZ         0.00000   0.00000   0.00000   0.19572   0.28212
  70 9   Cl 1S          0.00081  -0.00068  -0.00018   0.00000   0.00000
  71        2S         -0.00546   0.00491   0.00118   0.00000   0.00000
  72        2PX        -0.27113   0.01635   0.05521   0.00000   0.00000
  73        2PY         0.07896  -0.03637  -0.03713   0.00000   0.00000
  74        2PZ         0.00000   0.00000   0.00000  -0.19803   0.08944
  75        3S          0.01536  -0.01621  -0.00527   0.00000   0.00000
  76        3PX         0.60203  -0.03707  -0.12244   0.00000   0.00000
  77        3PY        -0.17602   0.08518   0.08152   0.00000   0.00000
  78        3PZ         0.00000   0.00000   0.00000   0.44027  -0.19994
  79        4S         -0.01505  -0.00182   0.02109   0.00000   0.00000
  80        4PX         0.43334  -0.01900  -0.09390   0.00000   0.00000
  81        4PY        -0.11353   0.05535   0.04865   0.00000   0.00000
  82        4PZ         0.00000   0.00000   0.00000   0.34344  -0.16538
  83 10  C  1S         -0.00820   0.01665  -0.00202   0.00000   0.00000
  84        2S          0.00843  -0.01478   0.00194   0.00000   0.00000
  85        2PX         0.02429  -0.09649   0.02447   0.00000   0.00000
  86        2PY         0.04169   0.09054  -0.03408   0.00000   0.00000
  87        2PZ         0.00000   0.00000   0.00000  -0.01094  -0.07765
  88        3S          0.05069  -0.09859   0.00674   0.00000   0.00000
  89        3PX        -0.01108  -0.08390   0.03135   0.00000   0.00000
  90        3PY         0.01681   0.08832  -0.02643   0.00000   0.00000
  91        3PZ         0.00000   0.00000   0.00000  -0.00754  -0.06491
  92 11  H  1S          0.02123   0.01962  -0.01066  -0.00487  -0.06616
  93        2S          0.00378   0.03185  -0.00908   0.00431  -0.08463
  94 12  H  1S          0.02123   0.01962  -0.01066   0.00487   0.06616
  95        2S          0.00378   0.03185  -0.00908  -0.00431   0.08463
  96 13  H  1S         -0.02648   0.02460  -0.00125   0.00000   0.00000
  97        2S         -0.04262   0.04569   0.00347   0.00000   0.00000
                          41        42        43        44        45
                           O         V         V         V         V
     Eigenvalues --    -0.27374  -0.06546  -0.05426   0.00502   0.03965
   1 1   C  1S         -0.00567   0.00000   0.00000  -0.09857  -0.10841
   2        2S          0.00801   0.00000   0.00000   0.09651   0.09082
   3        2PX        -0.11718   0.00000   0.00000   0.16543   0.19257
   4        2PY        -0.10212   0.00000   0.00000  -0.06182  -0.27717
   5        2PZ         0.00000   0.00503   0.38015   0.00000   0.00000
   6        3S          0.03314   0.00000   0.00000   0.73720   0.94530
   7        3PX         0.03633   0.00000   0.00000   0.31064   0.43340
   8        3PY         0.04666   0.00000   0.00000  -0.19609  -0.53599
   9        3PZ         0.00000   0.00769   0.49134   0.00000   0.00000
  10 2   N  1S         -0.05003   0.00000   0.00000   0.05086   0.01853
  11        2S          0.05489   0.00000   0.00000  -0.04703  -0.01464
  12        2PX         0.28287   0.00000   0.00000  -0.01485   0.01285
  13        2PY         0.11667   0.00000   0.00000  -0.00280   0.08501
  14        2PZ         0.00000  -0.26132  -0.17156   0.00000   0.00000
  15        3S          0.14242   0.00000   0.00000  -0.31735  -0.15620
  16        3PX         0.30870   0.00000   0.00000  -0.07002   0.02139
  17        3PY         0.15777   0.00000   0.00000  -0.00684   0.10421
  18        3PZ         0.00000  -0.38755  -0.23667   0.00000   0.00000
  19 3   C  1S          0.00846   0.00000   0.00000  -0.12035   0.05827
  20        2S         -0.01035   0.00000   0.00000   0.10959  -0.03954
  21        2PX        -0.08768   0.00000   0.00000   0.13860  -0.00528
  22        2PY         0.04906   0.00000   0.00000   0.24886  -0.26175
  23        2PZ         0.00000   0.32930  -0.15004   0.00000   0.00000
  24        3S         -0.08577   0.00000   0.00000   0.93920  -0.58662
  25        3PX         0.04200   0.00000   0.00000   0.22539   0.01677
  26        3PY        -0.00504   0.00000   0.00000   0.57631  -0.54638
  27        3PZ         0.00000   0.44469  -0.25020   0.00000   0.00000
  28 4   C  1S          0.00811   0.00000   0.00000   0.01328  -0.01471
[...]
 ITU=  0
     Eigenvalues ---    0.00142   0.01433   0.01817   0.02436   0.02895
     Eigenvalues ---    0.03915   0.04530   0.06099   0.06177   0.06650
     Eigenvalues ---    0.12372   0.13127   0.13526   0.15450   0.15846
     Eigenvalues ---    0.16056   0.16833   0.18857   0.19571   0.22441
     Eigenvalues ---    0.23216   0.24897   0.29917   0.32333   0.33855
     Eigenvalues ---    0.34337   0.35052   0.36170   0.41167   0.42210
     Eigenvalues ---    0.49294   0.50985   0.56357
 Angle between quadratic step and forces=  21.91 degrees.
 Linear search not attempted -- first point.
 Iteration  1 RMS(Cart)=  0.00022927 RMS(Int)=  0.00000003
 Iteration  2 RMS(Cart)=  0.00000005 RMS(Int)=  0.00000000
 ClnCor:  largest displacement from symmetrization is 3.84D-11 for atom    12.
 Variable       Old X    -DE/DX   Delta X   Delta X   Delta X     New X
                                 (Linear)    (Quad)   (Total)
    R1        2.52998   0.00006   0.00000   0.00049   0.00049   2.53047
    R2        2.51242  -0.00011   0.00000  -0.00044  -0.00044   2.51198
    R3        3.43201  -0.00015   0.00000  -0.00081  -0.00081   3.43120
    R4        2.50485   0.00001   0.00000  -0.00001  -0.00001   2.50484
    R5        2.64939   0.00001   0.00000   0.00020   0.00020   2.64958
    R6        3.45495  -0.00008   0.00000  -0.00047  -0.00047   3.45449
    R7        2.64998  -0.00015   0.00000  -0.00057  -0.00057   2.64941
    R8        2.84499  -0.00002   0.00000  -0.00004  -0.00004   2.84495
    R9        2.56650   0.00006   0.00000   0.00031   0.00031   2.56681
   R10        2.04817  -0.00006   0.00000  -0.00017  -0.00017   2.04800
   R11        2.07000   0.00008   0.00000   0.00023   0.00023   2.07023
   R12        2.07000   0.00008   0.00000   0.00023   0.00023   2.07023
   R13        2.06632   0.00010   0.00000   0.00028   0.00028   2.06660
    A1        2.21209   0.00001   0.00000   0.00001   0.00001   2.21209
    A2        2.02922  -0.00005   0.00000  -0.00042  -0.00042   2.02880
    A3        2.04188   0.00005   0.00000   0.00041   0.00041   2.04229
    A4        2.02702  -0.00004   0.00000  -0.00024  -0.00024   2.02678
    A5        2.16851   0.00001   0.00000   0.00009   0.00009   2.16860
    A6        2.03501  -0.00005   0.00000  -0.00024  -0.00024   2.03478
    A7        2.07966   0.00004   0.00000   0.00015   0.00015   2.07981
    A8        1.98745   0.00001   0.00000   0.00008   0.00008   1.98752
    A9        2.16143  -0.00003   0.00000  -0.00026  -0.00026   2.16117
   A10        2.13431   0.00002   0.00000   0.00019   0.00019   2.13449
   A11        2.15342   0.00000   0.00000  -0.00006  -0.00006   2.15336
   A12        2.10076   0.00001   0.00000   0.00028   0.00028   2.10104
   A13        2.02900  -0.00002   0.00000  -0.00021  -0.00021   2.02879
   A14        2.01789   0.00001   0.00000   0.00013   0.00013   2.01802
   A15        1.93235  -0.00001   0.00000  -0.00002  -0.00002   1.93233
   A16        1.93235  -0.00001   0.00000  -0.00002  -0.00002   1.93233
   A17        1.92729   0.00000   0.00000   0.00000   0.00000   1.92729
   A18        1.87683   0.00001   0.00000   0.00007   0.00007   1.87690
   A19        1.89686   0.00000   0.00000  -0.00001  -0.00001   1.89685
   A20        1.89686   0.00000   0.00000  -0.00001  -0.00001   1.89685
    D1        0.00000   0.00000   0.00000   0.00000   0.00000   0.00000
    D2        3.14159   0.00000   0.00000   0.00000   0.00000   3.14159
    D3        0.00000   0.00000   0.00000   0.00000   0.00000   0.00000
    D4        3.14159   0.00000   0.00000   0.00000   0.00000   3.14159
    D5        0.00000   0.00000   0.00000   0.00000   0.00000   0.00000
    D6        3.14159   0.00000   0.00000   0.00000   0.00000   3.14159
    D7        0.00000   0.00000   0.00000   0.00000   0.00000   0.00000
    D8        3.14159   0.00000   0.00000   0.00000   0.00000   3.14159
    D9        3.14159   0.00000   0.00000   0.00000   0.00000   3.14159
   D10        0.00000   0.00000   0.00000   0.00000   0.00000   0.00000
   D11        0.00000   0.00000   0.00000   0.00000   0.00000   0.00000
   D12        3.14159   0.00000   0.00000   0.00000   0.00000   3.14159
   D13        3.14159   0.00000   0.00000   0.00000   0.00000   3.14159
   D14        0.00000   0.00000   0.00000   0.00000   0.00000   0.00000
   D15       -1.03994   0.00000   0.00000  -0.00003  -0.00003  -1.03997
   D16        1.03994   0.00000   0.00000   0.00003   0.00003   1.03997
   D17        3.14159   0.00000   0.00000   0.00000   0.00000   3.14159
   D18        2.10165   0.00000   0.00000  -0.00003  -0.00003   2.10162
   D19       -2.10165   0.00000   0.00000   0.00003   0.00003  -2.10162
   D20        0.00000   0.00000   0.00000   0.00000   0.00000   0.00000
   D21        0.00000   0.00000   0.00000   0.00000   0.00000   0.00000
   D22        3.14159   0.00000   0.00000   0.00000   0.00000   3.14159
         Item               Value     Threshold  Converged?
 Maximum Force            0.000152     0.000450     YES
 RMS     Force            0.000045     0.000300     YES
 Maximum Displacement     0.001001     0.001800     YES
 RMS     Displacement     0.000229     0.001200     YES
 Predicted change in Energy=-2.562381D-07
 Optimization completed.
    -- Stationary point found.
                           ----------------------------
                           !   Optimized Parameters   !
                           ! (Angstroms and Degrees)  !
 --------------------------                            --------------------------
 ! Name  Definition              Value          Derivative Info.                !
 --------------------------------------------------------------------------------
 ! R1    R(1,2)                  1.3388         -DE/DX =    0.0001              !
 ! R2    R(1,6)                  1.3295         -DE/DX =   -0.0001              !
 ! R3    R(1,8)                  1.8161         -DE/DX =   -0.0002              !
 ! R4    R(2,3)                  1.3255         -DE/DX =    0.0                 !
 ! R5    R(3,4)                  1.402          -DE/DX =    0.0                 !
 ! R6    R(3,9)                  1.8283         -DE/DX =   -0.0001              !
 ! R7    R(4,5)                  1.4023         -DE/DX =   -0.0002              !
 ! R8    R(4,10)                 1.5055         -DE/DX =    0.0                 !
 ! R9    R(5,6)                  1.3581         -DE/DX =    0.0001              !
 ! R10   R(5,7)                  1.0838         -DE/DX =   -0.0001              !
 ! R11   R(10,11)                1.0954         -DE/DX =    0.0001              !
 ! R12   R(10,12)                1.0954         -DE/DX =    0.0001              !
 ! R13   R(10,13)                1.0934         -DE/DX =    0.0001              !
 ! A1    A(2,1,6)              126.7434         -DE/DX =    0.0                 !
 ! A2    A(2,1,8)              116.2656         -DE/DX =   -0.0001              !
 ! A3    A(6,1,8)              116.9911         -DE/DX =    0.0                 !
 ! A4    A(1,2,3)              116.1398         -DE/DX =    0.0                 !
 ! A5    A(2,3,4)              124.2463         -DE/DX =    0.0                 !
 ! A6    A(2,3,9)              116.5977         -DE/DX =   -0.0001              !
 ! A7    A(4,3,9)              119.156          -DE/DX =    0.0                 !
 ! A8    A(3,4,5)              113.8722         -DE/DX =    0.0                 !
 ! A9    A(3,4,10)             123.841          -DE/DX =    0.0                 !
 ! A10   A(5,4,10)             122.2868         -DE/DX =    0.0                 !
 ! A11   A(4,5,6)              123.3819         -DE/DX =    0.0                 !
 ! A12   A(4,5,7)              120.3648         -DE/DX =    0.0                 !
 ! A13   A(6,5,7)              116.2533         -DE/DX =    0.0                 !
 ! A14   A(1,6,5)              115.6164         -DE/DX =    0.0                 !
 ! A15   A(4,10,11)            110.7155         -DE/DX =    0.0                 !
 ! A16   A(4,10,12)            110.7155         -DE/DX =    0.0                 !
 ! A17   A(4,10,13)            110.4256         -DE/DX =    0.0                 !
 ! A18   A(11,10,12)           107.5343         -DE/DX =    0.0                 !
 ! A19   A(11,10,13)           108.6821         -DE/DX =    0.0                 !
 ! A20   A(12,10,13)           108.6821         -DE/DX =    0.0                 !
 ! D1    D(6,1,2,3)              0.0            -DE/DX =    0.0                 !
 ! D2    D(8,1,2,3)            180.0            -DE/DX =    0.0                 !
 ! D3    D(2,1,6,5)              0.0            -DE/DX =    0.0                 !
 ! D4    D(8,1,6,5)            180.0            -DE/DX =    0.0                 !
 ! D5    D(1,2,3,4)              0.0            -DE/DX =    0.0                 !
 ! D6    D(1,2,3,9)            180.0            -DE/DX =    0.0                 !
 ! D7    D(2,3,4,5)              0.0            -DE/DX =    0.0                 !
 ! D8    D(2,3,4,10)           180.0            -DE/DX =    0.0                 !
 ! D9    D(9,3,4,5)            180.0            -DE/DX =    0.0                 !
 ! D10   D(9,3,4,10)             0.0            -DE/DX =    0.0                 !
 ! D11   D(3,4,5,6)              0.0            -DE/DX =    0.0                 !
 ! D12   D(3,4,5,7)            180.0            -DE/DX =    0.0                 !
 ! D13   D(10,4,5,6)           180.0            -DE/DX =    0.0                 !
 ! D14   D(10,4,5,7)             0.0            -DE/DX =    0.0                 !
 ! D15   D(3,4,10,11)          -59.5843         -DE/DX =    0.0                 !
 ! D16   D(3,4,10,12)           59.5843         -DE/DX =    0.0                 !
 ! D17   D(3,4,10,13)          180.0            -DE/DX =    0.0                 !
 ! D18   D(5,4,10,11)          120.4157         -DE/DX =    0.0                 !
 ! D19   D(5,4,10,12)         -120.4157         -DE/DX =    0.0                 !
 ! D20   D(5,4,10,13)            0.0            -DE/DX =    0.0                 !
 ! D21   D(4,5,6,1)              0.0            -DE/DX =    0.0                 !
 ! D22   D(7,5,6,1)            180.0            -DE/DX =    0.0                 !
 --------------------------------------------------------------------------------
 GradGradGradGradGradGradGradGradGradGradGradGradGradGradGradGradGradGrad

 1|1|UNPC-DESKTOP-KC5UJLK|Freq|RB3LYP|6-21G|C5H4Cl2N2|23122|01-Apr-2022
 |0||#N Geom=AllCheck Guess=TCheck SCRF=Check GenChk RB3LYP/6-21G Freq|
 |Energy Calculation(GC)||0,1|C,-1.4054152182,0.1007334795,0.|N,-0.4405
 84629,-0.8274421626,0.|C,0.8052292685,-0.3747526841,0.|C,1.1509702696,
 0.9839437937,0.|C,0.0481848711,1.8501626632,0.|N,-1.23999558,1.4199165
 27,0.|H,0.1949844214,2.9240195597,0.|Cl,-3.113716519,-0.5157658796,0.|
 Cl,2.1328948079,-1.631701692,0.|C,2.5695585972,1.4880816239,0.|H,3.108
 3577439,1.1290669407,0.8835691012|H,3.1083577439,1.1290669407,-0.88356
 91012|H,2.5859971726,2.5814059301,0.||Version=IA32W-G09RevD.01|State=1
 -A'|HF=-1222.4381713|RMSD=6.165e-009|RMSF=7.824e-005|ZeroPoint=0.08460
 55|Thermal=0.0927895|Dipole=1.314376,1.1699411,0.|DipoleDeriv=2.103351
 5,0.4072292,0.,0.5667105,0.5869487,0.,0.,0.,0.1657715,-1.4067615,0.081
 7932,0.,0.0843391,-0.3680994,0.,0.,0.,-0.1557486,1.20641,-0.7127124,0.
 ,-0.6304132,0.9791427,0.,0.,0.,0.1051406,-0.0175643,0.3897427,0.,0.346
 5216,-0.5636129,0.,0.,0.,0.0376721,0.4110278,-0.2073012,0.,0.0549533,0
 .4693387,0.,0.,0.,-0.0033993,-0.852054,-0.0527314,0.,-0.5074099,-0.566
 9894,0.,0.,0.,-0.1934514,0.0493957,-0.0463388,0.,-0.0302675,-0.0415051
 ,0.,0.,0.,0.1197459,-0.896366,-0.2268605,0.,-0.2858393,-0.1836156,0.,0
 .,0.,-0.0934404,-0.576624,0.3884417,0.,0.4265015,-0.4791218,0.,0.,0.,-
 0.1044097,-0.1158801,-0.0326839,0.,0.0404832,0.1351953,0.,0.,0.,0.0280
 263,0.016805,-0.0193457,-0.0496585,-0.0072657,0.0669291,0.0586939,-0.0
 561347,0.039277,-0.0024969,0.016805,-0.0193457,0.0496585,-0.0072657,0.
 0669291,-0.0586939,0.0561347,-0.039277,-0.0024969,0.0614549,0.0501128,
 0.,-0.0510479,-0.1015395,0.,0.,0.,0.0990868|Polar=119.4318961,1.146103
 1,81.7549845,0.,0.,29.5499575|PG=CS [SG(C5H2Cl2N2),X(H2)]|NImag=0||0.5
 2818993,0.00416115,0.54050450,0.,0.,0.15641747,-0.18188822,0.08421936,
 0.,0.61075450,0.08440915,-0.15772056,0.,-0.04747641,0.33520141,0.,0.,-
 0.07438848,0.,0.,0.08788939,-0.13148913,0.06285990,0.,-0.28114458,-0.0
 5790345,0.,0.56181767,0.01580246,0.04768761,0.,-0.07619014,-0.11619864
 ,0.,0.05079576,0.53969442,0.,0.,0.00455248,0.,0.,-0.06795553,0.,0.,0.1
 4777365,-0.00219328,0.02704602,0.,-0.00438600,-0.04514646,0.,-0.121504
 16,-0.07097066,0.,0.65353824,0.02397960,-0.07284715,0.,-0.08900174,0.0
 0250366,0.,-0.01447599,-0.26298815,0.,0.01020998,0.61295451,0.,0.,-0.0
 0866637,0.,0.,0.02140216,0.,0.,-0.07828196,0.,0.,0.17246720,-0.0128800
 1,-0.11059974,0.,-0.08226233,0.02774923,0.,0.06202621,0.07596610,0.,-0
 .21559494,0.04255409,0.,0.58282343,-0.06292525,-0.05987288,0.,0.005035
 81,0.00288226,0.,0.02579545,-0.05579422,0.,0.11135612,-0.20277945,0.,0
 .03111799,0.77297995,0.,0.,0.00598369,0.,0.,-0.00653298,0.,0.,0.008609
 63,0.,0.,-0.07403712,0.,0.,0.16290714,-0.10695561,-0.03792832,0.,0.046
 61717,0.01875678,0.,-0.02935472,-0.03953556,0.,-0.06843235,0.04362198,
 0.,-0.25272019,-0.06898087,0.,0.44831411,-0.02902763,-0.26746533,0.,0.
 09073890,-0.07846661,0.,-0.06240143,-0.05306609,0.,-0.00858269,0.06666
 703,0.,-0.05198393,-0.12473694,0.,0.11837667,0.49064101,0.,0.,-0.07744
 390,0.,0.,0.03455551,0.,0.,-0.00668964,0.,0.,0.02075309,0.,0.,-0.06693
 808,0.,0.,0.09101433,-0.00278746,-0.00341795,0.,0.00006517,-0.00057187
 ,0.,-0.00364073,0.00223217,0.,0.00374840,0.02577278,0.,-0.05518875,-0.
 02661517,0.,-0.01475704,-0.03621599,0.,0.07175915,0.00068924,0.0029696
 5,0.,0.00067867,0.00044273,0.,0.00186053,-0.00023849,0.,-0.00578863,-0
 .01574617,0.,-0.02760746,-0.34026622,0.,-0.00756778,-0.00592323,0.,0.0
 3729815,0.35794382,0.,0.,0.01022580,0.,0.,-0.00348311,0.,0.,0.00792534
 ,0.,0.,0.00883709,0.,0.,-0.04450659,0.,0.,-0.00240971,0.,0.,0.02734047
 ,-0.09876817,-0.02803703,0.,-0.05293076,0.00538472,0.,0.00636260,-0.00
 279839,0.,-0.00278227,-0.00110014,0.,0.00370380,0.00366524,0.,-0.02075
 371,-0.02549344,0.,-0.00058671,-0.00024036,0.,0.16817299,-0.02852384,-
 0.02994460,0.,0.01449309,0.00426087,0.,0.00157321,-0.00246243,0.,-0.00
 175347,0.00168931,0.,0.00339928,0.00052563,0.,-0.03519133,-0.02782903,
 0.,-0.00071026,-0.00016743,0.,0.04754834,0.05288650,0.,0.,-0.02486112,
 0.,0.,0.00205200,0.,0.,0.00591994,0.,0.,-0.00059500,0.,0.,0.00604182,0
 .,0.,0.00210502,0.,0.,0.00023515,0.,0.,0.01051160,0.00993151,0.0003897
 2,0.,-0.05850528,0.01226188,0.,-0.04858605,0.05004406,0.,-0.01135634,0
 .00771370,0.,0.00473126,-0.00177751,0.,-0.00385787,0.00272457,0.,-0.00
 033439,0.00038004,0.,-0.00158415,-0.00030504,0.,0.10734973,-0.00982879
 ,-0.00124908,0.,0.01771002,0.01139478,0.,0.02922934,-0.08540820,0.,0.0
 3187921,-0.02552887,0.,-0.00962263,-0.00284146,0.,0.00462261,0.0013412
 6,0.,0.00148840,-0.00076333,0.,0.00126652,0.00061536,0.,-0.06810707,0.
 10536809,0.,0.,0.00746308,0.,0.,0.00019012,0.,0.,-0.02561612,0.,0.,0.0
 0747287,0.,0.,0.00500195,0.,0.,-0.00302517,0.,0.,-0.00088130,0.,0.,0.0
 0015141,0.,0.,0.01081795,-0.00249994,0.00043945,0.,0.00482253,0.003993
 78,0.,-0.00761220,-0.01138687,0.,-0.17975208,-0.03090790,0.,-0.0323413
 6,-0.00847402,0.,0.00342940,0.00189795,0.,0.00182687,-0.00077226,0.,-0
 .00009371,-0.00024062,0.,-0.00017436,0.00241202,0.,0.47410545,0.001416
 60,-0.00298032,0.,-0.00204301,-0.00440088,0.,-0.03158491,-0.01213685,0
 .,-0.03740607,-0.10021220,0.,0.01770253,0.01107521,0.,0.00432336,-0.00
 124504,0.,0.00190269,0.00061832,0.,0.00029344,0.00060733,0.,-0.0036214
 1,-0.00160637,0.,-0.03481934,0.57874847,0.,0.,0.00061963,0.,0.,0.00655
 061,0.,0.,0.00108043,0.,0.,-0.07288066,0.,0.,0.00420041,0.,0.,0.009067
 03,0.,0.,-0.00392239,0.,0.,-0.00166188,0.,0.,-0.00194397,0.,0.,0.54586
 205,0.00043295,0.00060546,0.00009069,-0.00034569,0.00006054,0.00106385
 ,-0.00014554,0.00296876,-0.00010832,-0.02359396,0.00923634,-0.02646812
 ,-0.00170556,-0.00291280,-0.00068697,-0.00122910,-0.00021581,0.0016311
 5,0.00000934,0.00000749,-0.00054334,-0.00032539,-0.00019471,-0.0002850
 9,0.00098464,-0.00080512,-0.00005620,-0.10579992,0.04086750,-0.1033288
 4,0.12310561,-0.00040960,0.00024231,0.00009018,0.00097909,0.00029556,0
 .00067028,-0.00241289,0.00030996,-0.00037534,-0.00528486,0.00346900,-0
 .01170807,-0.00075437,-0.00068256,0.00001610,0.00015833,-0.00001969,0.
 00037485,-0.00015582,0.00017617,0.00019801,-0.00014645,-0.00008758,-0.
 00011758,0.00036276,-0.00060547,-0.00012037,0.04026768,-0.07731503,0.0
 7151092,-0.04403977,0.08180527,0.00004884,-0.00006490,-0.00005064,0.00
 010432,-0.00009545,-0.00015606,-0.00132547,0.00097006,0.00078711,0.001
 20194,-0.00177243,0.00280997,0.00065519,-0.00009040,-0.00035241,0.0002
 2764,-0.00011405,-0.00036605,0.00004522,-0.00004517,0.00018199,-0.0000
 0429,-0.00000718,0.00005507,0.00089683,0.00001472,0.00006442,-0.103116
 51,0.07105510,-0.21876182,0.11360460,-0.07915643,0.23940784,0.00043295
 ,0.00060546,-0.00009069,-0.00034569,0.00006054,-0.00106385,-0.00014554
 ,0.00296876,0.00010832,-0.02359396,0.00923634,0.02646812,-0.00170556,-
 0.00291280,0.00068697,-0.00122910,-0.00021581,-0.00163115,0.00000934,0
 .00000749,0.00054334,-0.00032539,-0.00019471,0.00028509,0.00098464,-0.
 00080512,0.00005620,-0.10579992,0.04086750,0.10332884,0.00853400,-0.00
 552713,-0.01394292,0.12310561,-0.00040960,0.00024231,-0.00009018,0.000
 97909,0.00029556,-0.00067028,-0.00241289,0.00030996,0.00037534,-0.0052
 8486,0.00346900,0.01170807,-0.00075437,-0.00068256,-0.00001610,0.00015
 833,-0.00001969,-0.00037485,-0.00015582,0.00017617,-0.00019801,-0.0001
 4645,-0.00008758,0.00011758,0.00036276,-0.00060547,0.00012037,0.040267
 68,-0.07731503,-0.07151092,-0.00552713,0.00313424,0.01023927,-0.044039
 77,0.08180527,-0.00004884,0.00006490,-0.00005064,-0.00010432,0.0000954
 5,-0.00015606,0.00132547,-0.00097006,0.00078711,-0.00120194,0.00177243
 ,0.00280997,-0.00065519,0.00009040,-0.00035241,-0.00022764,0.00011405,
 -0.00036605,-0.00004522,0.00004517,0.00018199,0.00000429,0.00000718,0.
 00005507,-0.00089683,-0.00001472,0.00006442,0.10311651,-0.07105510,-0.
 21876182,0.01394292,-0.01023927,-0.02434088,-0.11360460,0.07915643,0.2
 3940784,0.00047447,-0.00034349,0.,-0.00045082,-0.00157844,0.,-0.006583
 83,0.00010355,0.,-0.00409730,-0.03683905,0.,0.00111400,-0.00237220,0.,
 0.00092899,0.00039865,0.,-0.00012321,0.00105489,0.,-0.00008914,0.00010
 006,0.,0.00041666,0.00056059,0.,-0.05011075,0.00210114,0.,0.00007862,0
 .01696303,0.00160461,0.00007862,0.01696303,-0.00160461,0.05836369,0.00
 066651,0.00043354,0.,-0.00012272,-0.00049014,0.,-0.00092264,0.00029112
 ,0.,-0.00027363,-0.01065051,0.,0.00283328,0.00019325,0.,-0.00081420,0.
 00012234,0.,-0.00085131,0.00077799,0.,-0.00019600,-0.00000635,0.,-0.00
 042846,-0.00011124,0.,-0.00267755,-0.31383761,0.,-0.00005076,-0.010722
 17,-0.00093314,-0.00005076,-0.01072217,0.00093314,0.00288825,0.3447219
 5,0.,0.,0.00019900,0.,0.,0.00003243,0.,0.,0.00110756,0.,0.,-0.00209124
 ,0.,0.,-0.00002505,0.,0.,-0.00025638,0.,0.,0.00027525,0.,0.,-0.0000090
 8,0.,0.,0.00024034,0.,0.,-0.04944763,0.00114365,0.02885672,0.00072145,
 -0.00114365,-0.02885672,0.00072145,0.,0.,0.04853191||0.00016935,-0.000
 15075,0.,-0.00002685,0.00011935,0.,-0.00009361,0.00000531,0.,0.0001249
 1,-0.00013140,0.,-0.00019564,0.00002872,0.,0.00005411,0.00014171,0.,0.
 00003466,0.00005642,0.,-0.00015914,-0.00000338,0.,0.00006260,-0.000043
 98,0.,0.00007985,0.00005477,0.,-0.00003097,0.00001516,-0.00006950,-0.0
 0003097,0.00001516,0.00006950,0.00001169,-0.00010710,0.|||@


 I take a simple view of life: keep your eyes open and get on with it.
 -- Laurence Olivier
 Job cpu time:       0 days  0 hours  0 minutes 45.0 seconds.
 File lengths (MBytes):  RWF=     22 Int=      0 D2E=      0 Chk=      2 Scr=      1
 Normal termination of Gaussian 09 at Fri Apr 01 15:11:08 2022.
