Energy Calculation(GC)                                                  
Freq      RB3LYP                                                      6-21G               
Number of atoms                            I               13
Info1-9                                    I   N=           9
          37          36        1002           0           0         100
           6          18        -502
Charge                                     I                0
Multiplicity                               I                1
Number of electrons                        I               82
Number of alpha electrons                  I               41
Number of beta electrons                   I               41
Number of basis functions                  I               97
Number of independent functions            I               97
Number of point charges in /Mol/           I                0
Number of translation vectors              I                0
Atomic numbers                             I   N=          13
           6           7           6           6           6           7
           1          17          17           6           1           1
           1
Nuclear charges                            R   N=          13
  6.00000000E+00  7.00000000E+00  6.00000000E+00  6.00000000E+00  6.00000000E+00
  7.00000000E+00  1.00000000E+00  1.70000000E+01  1.70000000E+01  6.00000000E+00
  1.00000000E+00  1.00000000E+00  1.00000000E+00
Current cartesian coordinates              R   N=          39
  9.21818162E-01 -2.48803811E+00  0.00000000E+00  1.75774965E+00 -1.00146974E-01
  0.00000000E+00  0.00000000E+00  1.68439942E+00  0.00000000E+00 -2.60652621E+00
  1.20976158E+00  0.00000000E+00 -3.22748981E+00 -1.36643694E+00  0.00000000E+00
 -1.47497923E+00 -3.24143279E+00  0.00000000E+00 -5.18811007E+00 -1.95885994E+00
  0.00000000E+00  3.32481142E+00 -4.93840503E+00  0.00000000E+00  1.11545146E+00
  4.95433347E+00  0.00000000E+00 -4.58857565E+00  3.25070969E+00  0.00000000E+00
 -4.39550133E+00  4.45888958E+00  1.66970362E+00 -4.39550133E+00  4.45888958E+00
 -1.66970362E+00 -6.48010803E+00  2.41898177E+00  0.00000000E+00
Force Field                                I                0
Int Atom Types                             I   N=          13
           0           0           0           0           0           0
           0           0           0           0           0           0
           0
MM charges                                 R   N=          13
  0.00000000E+00  0.00000000E+00  0.00000000E+00  0.00000000E+00  0.00000000E+00
  0.00000000E+00  0.00000000E+00  0.00000000E+00  0.00000000E+00  0.00000000E+00
  0.00000000E+00  0.00000000E+00  0.00000000E+00
Integer atomic weights                     I   N=          13
          12          14          12          12          12          14
           1          35          35          12           1           1
           1
Real atomic weights                        R   N=          13
  1.20000000E+01  1.40030740E+01  1.20000000E+01  1.20000000E+01  1.20000000E+01
  1.40030740E+01  1.00782504E+00  3.49688527E+01  3.49688527E+01  1.20000000E+01
  1.00782504E+00  1.00782504E+00  1.00782504E+00
Atom fragment info                         I   N=          13
           0           0           0           0           0           0
           0           0           0           0           0           0
           0
Atom residue num                           I   N=          13
           0           0           0           0           0           0
           0           0           0           0           0           0
           0
Nuclear spins                              I   N=          13
           0           2           0           0           0           2
           1           3           3           0           1           1
           1
Nuclear ZEff                               R   N=          13
 -3.60000000E+00 -4.55000000E+00 -3.60000000E+00 -3.60000000E+00 -3.60000000E+00
 -4.55000000E+00 -1.00000000E+00 -1.42400000E+01 -1.42400000E+01 -3.60000000E+00
 -1.00000000E+00 -1.00000000E+00 -1.00000000E+00
Nuclear ZNuc                               R   N=          13
  6.00000000E+00  7.00000000E+00  6.00000000E+00  6.00000000E+00  6.00000000E+00
  7.00000000E+00  1.00000000E+00  1.70000000E+01  1.70000000E+01  6.00000000E+00
  1.00000000E+00  1.00000000E+00  1.00000000E+00
Nuclear QMom                               R   N=          13
  0.00000000E+00  2.04400000E+00  0.00000000E+00  0.00000000E+00  0.00000000E+00
  2.04400000E+00  0.00000000E+00 -8.16500000E+00 -8.16500000E+00  0.00000000E+00
  0.00000000E+00  0.00000000E+00  0.00000000E+00
Nuclear GFac                               R   N=          13
  0.00000000E+00  4.03761000E-01  0.00000000E+00  0.00000000E+00  0.00000000E+00
  4.03761000E-01  2.79284600E+00  8.21874000E-01  8.21874000E-01  0.00000000E+00
  2.79284600E+00  2.79284600E+00  2.79284600E+00
MicOpt                                     I   N=          13
          -1          -1          -1          -1          -1          -1
          -1          -1          -1          -1          -1          -1
          -1
Number of contracted shells                I               37
Number of primitive shells                 I              105
Pure/Cartesian d shells                    I                1
Pure/Cartesian f shells                    I                0
Highest angular momentum                   I                1
Largest degree of contraction              I                6
Shell types                                I   N=          37
           0          -1          -1           0          -1          -1
           0          -1          -1           0          -1          -1
           0          -1          -1           0          -1          -1
           0           0           0          -1          -1          -1
           0          -1          -1          -1           0          -1
          -1           0           0           0           0           0
           0
Number of primitives per shell             I   N=          37
           6           2           1           6           2           1
           6           2           1           6           2           1
           6           2           1           6           2           1
           2           1           6           6           2           1
           6           6           2           1           6           2
           1           2           1           2           1           2
           1
Shell to atom map                          I   N=          37
           1           1           1           2           2           2
           3           3           3           4           4           4
           5           5           5           6           6           6
           7           7           8           8           8           8
           9           9           9           9          10          10
          10          11          11          12          12          13
          13
Primitive exponents                        R   N=         105
  3.04752000E+03  4.56424000E+02  1.03653000E+02  2.92258000E+01  9.34863000E+00
  3.18904000E+00  3.66498000E+00  7.70545000E-01  1.95857000E-01  4.15011000E+03
  6.20084000E+02  1.41688000E+02  4.03367000E+01  1.30267000E+01  4.47003000E+00
  5.42522000E+00  1.14915000E+00  2.83205000E-01  3.04752000E+03  4.56424000E+02
  1.03653000E+02  2.92258000E+01  9.34863000E+00  3.18904000E+00  3.66498000E+00
  7.70545000E-01  1.95857000E-01  3.04752000E+03  4.56424000E+02  1.03653000E+02
  2.92258000E+01  9.34863000E+00  3.18904000E+00  3.66498000E+00  7.70545000E-01
  1.95857000E-01  3.04752000E+03  4.56424000E+02  1.03653000E+02  2.92258000E+01
  9.34863000E+00  3.18904000E+00  3.66498000E+00  7.70545000E-01  1.95857000E-01
  4.15011000E+03  6.20084000E+02  1.41688000E+02  4.03367000E+01  1.30267000E+01
  4.47003000E+00  5.42522000E+00  1.14915000E+00  2.83205000E-01  5.44717800E+00
  8.24547240E-01  1.83191580E-01  2.51801000E+04  3.78035000E+03  8.60474000E+02
  2.42145000E+02  7.73349000E+01  2.62470000E+01  4.91765000E+02  1.16984000E+02
  3.74153000E+01  1.37834000E+01  5.45215000E+00  2.22588000E+00  1.35299000E+00
  5.26955000E-01  1.66714000E-01  2.51801000E+04  3.78035000E+03  8.60474000E+02
  2.42145000E+02  7.73349000E+01  2.62470000E+01  4.91765000E+02  1.16984000E+02
  3.74153000E+01  1.37834000E+01  5.45215000E+00  2.22588000E+00  1.35299000E+00
  5.26955000E-01  1.66714000E-01  3.04752000E+03  4.56424000E+02  1.03653000E+02
  2.92258000E+01  9.34863000E+00  3.18904000E+00  3.66498000E+00  7.70545000E-01
  1.95857000E-01  5.44717800E+00  8.24547240E-01  1.83191580E-01  5.44717800E+00
  8.24547240E-01  1.83191580E-01  5.44717800E+00  8.24547240E-01  1.83191580E-01
Contraction coefficients                   R   N=         105
  1.82588012E-03  1.40566009E-02  6.87570046E-02  2.30422015E-01  4.68463031E-01
  3.62780024E-01 -3.95895162E-01  1.21583436E+00  1.00000000E+00  1.84540991E-03
  1.41644993E-02  6.86324967E-02  2.28573989E-01  4.66161978E-01  3.65671982E-01
 -4.13300077E-01  1.22441727E+00  1.00000000E+00  1.82588012E-03  1.40566009E-02
  6.87570046E-02  2.30422015E-01  4.68463031E-01  3.62780024E-01 -3.95895162E-01
  1.21583436E+00  1.00000000E+00  1.82588012E-03  1.40566009E-02  6.87570046E-02
  2.30422015E-01  4.68463031E-01  3.62780024E-01 -3.95895162E-01  1.21583436E+00
  1.00000000E+00  1.82588012E-03  1.40566009E-02  6.87570046E-02  2.30422015E-01
  4.68463031E-01  3.62780024E-01 -3.95895162E-01  1.21583436E+00  1.00000000E+00
  1.84540991E-03  1.41644993E-02  6.86324967E-02  2.28573989E-01  4.66161978E-01
  3.65671982E-01 -4.13300077E-01  1.22441727E+00  1.00000000E+00  1.56284979E-01
  9.04690877E-01  1.00000000E+00  1.83295985E-03  1.40341988E-02  6.90973943E-02
  2.37451980E-01  4.83033960E-01  3.39855972E-01 -2.29739142E-03 -3.07137189E-02
 -1.12528069E-01  4.50163278E-02  5.89353363E-01  4.65206287E-01 -2.22401484E-01
  1.18252257E+00  1.00000000E+00  1.83295985E-03  1.40341988E-02  6.90973943E-02
  2.37451980E-01  4.83033960E-01  3.39855972E-01 -2.29739142E-03 -3.07137189E-02
 -1.12528069E-01  4.50163278E-02  5.89353363E-01  4.65206287E-01 -2.22401484E-01
  1.18252257E+00  1.00000000E+00  1.82588012E-03  1.40566009E-02  6.87570046E-02
  2.30422015E-01  4.68463031E-01  3.62780024E-01 -3.95895162E-01  1.21583436E+00
  1.00000000E+00  1.56284979E-01  9.04690877E-01  1.00000000E+00  1.56284979E-01
  9.04690877E-01  1.00000000E+00  1.56284979E-01  9.04690877E-01  1.00000000E+00
P(S=P) Contraction coefficients            R   N=         105
  0.00000000E+00  0.00000000E+00  0.00000000E+00  0.00000000E+00  0.00000000E+00
  0.00000000E+00  2.36459947E-01  8.60618806E-01  1.00000000E+00  0.00000000E+00
  0.00000000E+00  0.00000000E+00  0.00000000E+00  0.00000000E+00  0.00000000E+00
  2.37972016E-01  8.58953059E-01  1.00000000E+00  0.00000000E+00  0.00000000E+00
  0.00000000E+00  0.00000000E+00  0.00000000E+00  0.00000000E+00  2.36459947E-01
  8.60618806E-01  1.00000000E+00  0.00000000E+00  0.00000000E+00  0.00000000E+00
  0.00000000E+00  0.00000000E+00  0.00000000E+00  2.36459947E-01  8.60618806E-01
  1.00000000E+00  0.00000000E+00  0.00000000E+00  0.00000000E+00  0.00000000E+00
  0.00000000E+00  0.00000000E+00  2.36459947E-01  8.60618806E-01  1.00000000E+00
  0.00000000E+00  0.00000000E+00  0.00000000E+00  0.00000000E+00  0.00000000E+00
  0.00000000E+00  2.37972016E-01  8.58953059E-01  1.00000000E+00  0.00000000E+00
  0.00000000E+00  0.00000000E+00  0.00000000E+00  0.00000000E+00  0.00000000E+00
  0.00000000E+00  0.00000000E+00  0.00000000E+00  3.98940088E-03  3.03177067E-02
  1.29880029E-01  3.27951072E-01  4.53527100E-01  2.52154056E-01  2.19215797E-01
  8.22320239E-01  1.00000000E+00  0.00000000E+00  0.00000000E+00  0.00000000E+00
  0.00000000E+00  0.00000000E+00  0.00000000E+00  3.98940088E-03  3.03177067E-02
  1.29880029E-01  3.27951072E-01  4.53527100E-01  2.52154056E-01  2.19215797E-01
  8.22320239E-01  1.00000000E+00  0.00000000E+00  0.00000000E+00  0.00000000E+00
  0.00000000E+00  0.00000000E+00  0.00000000E+00  2.36459947E-01  8.60618806E-01
  1.00000000E+00  0.00000000E+00  0.00000000E+00  0.00000000E+00  0.00000000E+00
  0.00000000E+00  0.00000000E+00  0.00000000E+00  0.00000000E+00  0.00000000E+00
Coordinates of each shell                  R   N=         111
  9.21818162E-01 -2.48803811E+00  0.00000000E+00  9.21818162E-01 -2.48803811E+00
  0.00000000E+00  9.21818162E-01 -2.48803811E+00  0.00000000E+00  1.75774965E+00
 -1.00146974E-01  0.00000000E+00  1.75774965E+00 -1.00146974E-01  0.00000000E+00
  1.75774965E+00 -1.00146974E-01  0.00000000E+00  0.00000000E+00  1.68439942E+00
  0.00000000E+00  0.00000000E+00  1.68439942E+00  0.00000000E+00  0.00000000E+00
  1.68439942E+00  0.00000000E+00 -2.60652621E+00  1.20976158E+00  0.00000000E+00
 -2.60652621E+00  1.20976158E+00  0.00000000E+00 -2.60652621E+00  1.20976158E+00
  0.00000000E+00 -3.22748981E+00 -1.36643694E+00  0.00000000E+00 -3.22748981E+00
 -1.36643694E+00  0.00000000E+00 -3.22748981E+00 -1.36643694E+00  0.00000000E+00
 -1.47497923E+00 -3.24143279E+00  0.00000000E+00 -1.47497923E+00 -3.24143279E+00
  0.00000000E+00 -1.47497923E+00 -3.24143279E+00  0.00000000E+00 -5.18811007E+00
 -1.95885994E+00  0.00000000E+00 -5.18811007E+00 -1.95885994E+00  0.00000000E+00
  3.32481142E+00 -4.93840503E+00  0.00000000E+00  3.32481142E+00 -4.93840503E+00
  0.00000000E+00  3.32481142E+00 -4.93840503E+00  0.00000000E+00  3.32481142E+00
 -4.93840503E+00  0.00000000E+00  1.11545146E+00  4.95433347E+00  0.00000000E+00
  1.11545146E+00  4.95433347E+00  0.00000000E+00  1.11545146E+00  4.95433347E+00
  0.00000000E+00  1.11545146E+00  4.95433347E+00  0.00000000E+00 -4.58857565E+00
  3.25070969E+00  0.00000000E+00 -4.58857565E+00  3.25070969E+00  0.00000000E+00
 -4.58857565E+00  3.25070969E+00  0.00000000E+00 -4.39550133E+00  4.45888958E+00
  1.66970362E+00 -4.39550133E+00  4.45888958E+00  1.66970362E+00 -4.39550133E+00
  4.45888958E+00 -1.66970362E+00 -4.39550133E+00  4.45888958E+00 -1.66970362E+00
 -6.48010803E+00  2.41898177E+00  0.00000000E+00 -6.48010803E+00  2.41898177E+00
  0.00000000E+00
Constraint Structure                       R   N=          39
  9.21818162E-01 -2.48803811E+00  0.00000000E+00  1.75774965E+00 -1.00146974E-01
  0.00000000E+00  0.00000000E+00  1.68439942E+00  0.00000000E+00 -2.60652621E+00
  1.20976158E+00  0.00000000E+00 -3.22748981E+00 -1.36643694E+00  0.00000000E+00
 -1.47497923E+00 -3.24143279E+00  0.00000000E+00 -5.18811007E+00 -1.95885994E+00
  0.00000000E+00  3.32481142E+00 -4.93840503E+00  0.00000000E+00  1.11545146E+00
  4.95433347E+00  0.00000000E+00 -4.58857565E+00  3.25070969E+00  0.00000000E+00
 -4.39550133E+00  4.45888958E+00  1.66970362E+00 -4.39550133E+00  4.45888958E+00
 -1.66970362E+00 -6.48010803E+00  2.41898177E+00  0.00000000E+00
Num ILSW                                   I              100
ILSW                                       I   N=         100
           0           1           0           0           2           0
           0           0           0           0         402          -1
           0           0           0           0           2           0
           0           0           1           0           1           0
           1           0           0           0           0           0
           0           0      100000           0          -1           0
           0           0           0           0           0           0
           0           0           0           1           0           0
           0           0           1           0           0           0
           0           0           4          41           0           0
           0           0           5           0           0           0
           0           0           0           0           0           0
           0           0           0           0           0           0
           0           0           0           0           0           0
           0           0           0           0           0           0
           0           0           0           0           0           0
           0           0           0           0
Num RLSW                                   I               41
RLSW                                       R   N=          41
  8.00000000E-01  7.20000000E-01  1.00000000E+00  8.10000000E-01  2.00000000E-01
  0.00000000E+00  0.00000000E+00  1.00000000E+00  0.00000000E+00  0.00000000E+00
  0.00000000E+00  0.00000000E+00  1.00000000E+00  0.00000000E+00  0.00000000E+00
  0.00000000E+00  0.00000000E+00  1.00000000E+00  0.00000000E+00  0.00000000E+00
  0.00000000E+00  0.00000000E+00  1.00000000E+00  0.00000000E+00  0.00000000E+00
  0.00000000E+00  0.00000000E+00  1.00000000E+00  0.00000000E+00  0.00000000E+00
  0.00000000E+00  0.00000000E+00  1.00000000E+00  0.00000000E+00  0.00000000E+00
  0.00000000E+00  0.00000000E+00  0.00000000E+00  1.00000000E+00  1.00000000E+00
  0.00000000E+00
MxBond                                     I                4
NBond                                      I   N=          13
           3           2           3           3           3           2
           1           1           1           4           1           1
           1
IBond                                      I   N=          52
           2           6           8           0           1           3
           0           0           2           4           9           0
           3           5          10           0           4           6
           7           0           1           5           0           0
           5           0           0           0           1           0
           0           0           3           0           0           0
           4          11          12          13          10           0
           0           0          10           0           0           0
          10           0           0           0
RBond                                      R   N=          52
  2.00000000E+00  2.00000000E+00  1.00000000E+00  0.00000000E+00  2.00000000E+00
  2.00000000E+00  0.00000000E+00  0.00000000E+00  2.00000000E+00  1.50000000E+00
  1.00000000E+00  0.00000000E+00  1.50000000E+00  1.50000000E+00  1.00000000E+00
  0.00000000E+00  1.50000000E+00  2.00000000E+00  1.00000000E+00  0.00000000E+00
  2.00000000E+00  2.00000000E+00  0.00000000E+00  0.00000000E+00  1.00000000E+00
  0.00000000E+00  0.00000000E+00  0.00000000E+00  1.00000000E+00  0.00000000E+00
  0.00000000E+00  0.00000000E+00  1.00000000E+00  0.00000000E+00  0.00000000E+00
  0.00000000E+00  1.00000000E+00  1.00000000E+00  1.00000000E+00  1.00000000E+00
  1.00000000E+00  0.00000000E+00  0.00000000E+00  0.00000000E+00  1.00000000E+00
  0.00000000E+00  0.00000000E+00  0.00000000E+00  1.00000000E+00  0.00000000E+00
  0.00000000E+00  0.00000000E+00
Virial Ratio                               R      2.002747560473923E+00
SCF Energy                                 R     -1.222438171289717E+03
Total Energy                               R     -1.222438171289717E+03
RMS Force                                  R      7.823894668469061E-05
RMS Density                                R      6.164783573831631E-09
External E-field                           R   N=          35
  0.00000000E+00  0.00000000E+00  0.00000000E+00  0.00000000E+00  0.00000000E+00
  0.00000000E+00  0.00000000E+00  0.00000000E+00  0.00000000E+00  0.00000000E+00
  0.00000000E+00  0.00000000E+00  0.00000000E+00  0.00000000E+00  0.00000000E+00
  0.00000000E+00  0.00000000E+00  0.00000000E+00  0.00000000E+00  0.00000000E+00
  0.00000000E+00  0.00000000E+00  0.00000000E+00  0.00000000E+00  0.00000000E+00
  0.00000000E+00  0.00000000E+00  0.00000000E+00  0.00000000E+00  0.00000000E+00
  0.00000000E+00  0.00000000E+00  0.00000000E+00  0.00000000E+00  0.00000000E+00
IOpCl                                      I                0
IROHF                                      I                0
Alpha Orbital Energies                     R   N=          97
 -1.01548097E+02 -1.01536368E+02 -1.44120364E+01 -1.44038942E+01 -1.03631539E+01
 -1.03483460E+01 -1.02944095E+01 -1.02757964E+01 -1.02323266E+01 -9.48204723E+00
 -9.47093014E+00 -7.24590424E+00 -7.23508392E+00 -7.23472447E+00 -7.23393013E+00
 -7.22345027E+00 -7.22246491E+00 -1.06469223E+00 -9.60730709E-01 -8.94208989E-01
 -8.50028241E-01 -8.28619033E-01 -7.39389511E-01 -6.94984322E-01 -6.63342384E-01
 -5.80223258E-01 -5.33861667E-01 -4.89330578E-01 -4.65600494E-01 -4.55056940E-01
 -4.44728558E-01 -4.40385446E-01 -4.25602328E-01 -3.83967501E-01 -3.49335618E-01
 -3.35338813E-01 -3.33148809E-01 -3.23806789E-01 -3.20052302E-01 -2.88131443E-01
 -2.78619555E-01 -6.90648238E-02 -5.58843470E-02 -1.53491794E-02  1.83862021E-02
  9.17025980E-02  1.09506995E-01  1.33397596E-01  1.51233441E-01  1.77187919E-01
  2.13058363E-01  2.36316090E-01  2.61903804E-01  3.30885154E-01  3.51612830E-01
  3.94690962E-01  4.86369941E-01  4.97922396E-01  5.08775633E-01  5.36566234E-01
  5.56781457E-01  5.67507821E-01  5.79469095E-01  5.82971417E-01  5.92961474E-01
  6.32914909E-01  6.63410475E-01  7.05750450E-01  7.13577566E-01  7.43417805E-01
  7.46451942E-01  7.57970797E-01  7.91954273E-01  7.95178586E-01  8.30517787E-01
  8.78236746E-01  9.14267431E-01  1.00495453E+00  1.02701911E+00  1.05165284E+00
  1.05862583E+00  1.11818380E+00  1.13118429E+00  1.15317330E+00  1.24751011E+00
  1.29494969E+00  1.32532794E+00  1.35991512E+00  1.39988572E+00  1.46642030E+00
  1.51086773E+00  1.59624892E+00  1.76825594E+00  1.89933934E+00  1.96410474E+00
  2.61367026E+00  2.92832660E+00
Alpha MO coefficients                      R   N=        9409
 -4.05722644E-07 -3.22448459E-05  1.66700624E-06 -4.57235828E-05  0.00000000E+00
 -1.91368571E-04 -5.47728145E-05 -7.07493939E-05  0.00000000E+00 -9.16072193E-06
 -4.73241123E-05  2.05574689E-05  6.99903106E-05  0.00000000E+00  4.09933260E-04
 -1.81154506E-04 -1.83229625E-04  0.00000000E+00  7.00264867E-06  3.50151511E-05
  1.15090268E-05 -6.37237140E-05  0.00000000E+00 -5.41729465E-04 -1.70396147E-04
  2.51889478E-04  0.00000000E+00 -3.94143270E-06  9.03964936E-06  2.54499794E-05
  9.88128644E-05  0.00000000E+00  3.34609340E-04 -5.77199898E-06 -7.03820116E-04
  0.00000000E+00  7.38126382E-06  4.23316793E-05 -1.73924529E-05 -1.15360644E-05
  0.00000000E+00 -5.76255136E-04 -6.66708513E-05 -3.12302337E-04  0.00000000E+00
 -1.04558589E-06 -4.32077690E-06 -8.54383484E-06 -3.30187527E-06  0.00000000E+00
  1.23638484E-05  4.06862357E-05  5.16578643E-05  0.00000000E+00  1.37689883E-05
  7.87233687E-07 -6.51968652E-06 -5.79226477E-07  6.31915427E-07 -8.54408024E-07
  0.00000000E+00 -7.95059986E-06 -2.91567681E-06  2.95476585E-06  0.00000000E+00
  3.33895924E-05 -7.12196013E-06  2.46703777E-05  0.00000000E+00  9.96547721E-01
  1.35183834E-02 -4.14805125E-05 -8.61097985E-05  0.00000000E+00 -4.77660715E-03
  9.38504160E-05  1.72396100E-04  0.00000000E+00  2.37228833E-03 -1.61922489E-04
 -3.61575349E-04  0.00000000E+00 -2.07269119E-06  8.44252837E-06  8.77274363E-05
  1.14931047E-05  0.00000000E+00  3.34124071E-04 -1.12020973E-04 -7.88616227E-05
  0.00000000E+00  4.45818179E-05 -9.98569995E-05  4.45818179E-05 -9.98569995E-05
 -2.58417638E-05 -1.24635413E-04  4.53337570E-06  4.88022830E-05 -2.90021139E-05
  2.99662379E-05  0.00000000E+00 -3.93151356E-04  4.09156096E-05 -7.76915983E-06
  0.00000000E+00 -5.86413268E-06 -1.98269958E-05  5.34131299E-05 -6.88206771E-05
  0.00000000E+00  2.53539348E-04 -2.58535957E-04  2.50662195E-04  0.00000000E+00
  5.15454455E-07 -2.46827506E-05 -2.07627989E-05  4.02308447E-05  0.00000000E+00
 -2.97875598E-04 -1.33153153E-04  1.20597433E-04  0.00000000E+00 -1.82886902E-06
 -1.22791615E-05 -1.20151945E-05  1.29242926E-05  0.00000000E+00  1.66799219E-05
  1.17037650E-04 -1.46830578E-04  0.00000000E+00  1.51037889E-06 -1.88450739E-05
 -3.64527026E-05  2.31220394E-05  0.00000000E+00 -2.80010577E-04 -9.67118999E-05
  8.91880099E-05  0.00000000E+00 -5.33994692E-06 -1.73939459E-05  6.32682023E-05
 -5.37701556E-05  0.00000000E+00  2.36094330E-04 -1.98961722E-04  2.47702848E-04
  0.00000000E+00  7.56865266E-06  1.82389098E-05  9.96548597E-01  1.35110495E-02
 -6.33775658E-05  6.49782491E-05  0.00000000E+00 -4.71686182E-03  1.14985429E-04
 -1.18647141E-04  0.00000000E+00  2.32291061E-03 -2.54196817E-04  2.57351037E-04
  0.00000000E+00  6.54301113E-06 -3.83242250E-07 -4.27305132E-07  1.07718779E-06
  0.00000000E+00 -7.87977600E-06  1.55014666E-06 -3.65226465E-06  0.00000000E+00
  2.40728668E-05  8.62707784E-06 -2.12358615E-05  0.00000000E+00 -1.29733851E-06
 -3.71511254E-06  8.56396953E-06 -5.75547012E-06  0.00000000E+00  1.07973936E-04
  1.93579587E-05 -3.21550063E-05  0.00000000E+00 -3.17814992E-06 -7.41626422E-07
 -3.17814992E-06 -7.41626422E-07 -1.37073485E-06 -1.88946053E-05  4.98768484E-05
  4.48326723E-05  1.14496328E-05  1.57909606E-04  0.00000000E+00  3.53192805E-03
 -2.14757171E-04  2.83393021E-03  0.00000000E+00  9.94138204E-01  3.03776454E-02
 -2.69564518E-03 -5.60325355E-04  0.00000000E+00 -1.31267698E-02  4.11543896E-03
  6.48984279E-04  0.00000000E+00  3.68586878E-05 -9.95200211E-05  8.71905717E-05
 -4.36624644E-05  0.00000000E+00  4.92229547E-03  9.21001493E-04 -3.79299007E-03
  0.00000000E+00  4.65165011E-05  1.93354177E-04 -3.39720765E-05 -1.78815353E-04
  0.00000000E+00 -1.87141626E-03 -1.67773196E-03  2.54961013E-03  0.00000000E+00
  3.59726089E-07  9.47213398E-05  1.01200988E-04 -3.68723276E-06  0.00000000E+00
  1.87919204E-03  5.88748481E-04  4.87618635E-04  0.00000000E+00 -4.83659233E-05
  2.50847650E-04 -8.17423116E-05  5.16396480E-05  0.00000000E+00 -1.26147215E-03
  2.36222794E-05 -1.01179292E-03  0.00000000E+00 -1.79077232E-05  3.56201323E-05
  1.87909878E-07 -1.93090914E-06  6.86441961E-06 -8.70921591E-07  0.00000000E+00
  1.63953521E-05 -3.37803918E-05  3.12496130E-05  0.00000000E+00  3.33666306E-04
 -3.24322438E-04 -5.83679157E-05  0.00000000E+00  9.88793235E-07 -1.00218340E-05
  1.29116980E-05  1.32882604E-05  0.00000000E+00  3.17497123E-05 -5.37265278E-05
 -9.33917995E-05  0.00000000E+00  5.59940430E-04 -3.35229518E-04 -2.17227515E-04
  0.00000000E+00  1.14199727E-05  1.57093986E-05 -1.08087889E-04  4.78604276E-05
  0.00000000E+00 -1.26608416E-03 -2.81095873E-04  4.85523582E-04  0.00000000E+00
  2.58681134E-05 -3.99750814E-05  2.58681134E-05 -3.99750814E-05  5.40509120E-05
  8.91814393E-05  5.68192410E-05  4.07147384E-05 -1.50563588E-04 -2.95934654E-06
  0.00000000E+00  3.77984597E-03 -3.04624574E-03  1.83014911E-04  0.00000000E+00
  1.39344132E-04  2.58056442E-04 -5.39307071E-05  8.54764551E-05  0.00000000E+00
 -1.26729084E-03  1.06870278E-03 -1.09971011E-04  0.00000000E+00  4.51765472E-07
  9.74845092E-05  1.04488468E-05 -1.06977728E-04  0.00000000E+00  2.02770815E-03
 -5.46278812E-04 -6.12846274E-04  0.00000000E+00  5.48659509E-05  2.46360517E-04
  1.76918561E-04  3.10025328E-05  0.00000000E+00 -2.39732609E-03 -2.36244504E-03
  1.96570773E-03  0.00000000E+00  1.43897473E-05 -1.36083234E-04  8.20986272E-05
 -1.43634582E-04  0.00000000E+00  4.46742466E-03  3.60273795E-03 -3.92398713E-04
  0.00000000E+00  9.94141982E-01  3.02764333E-02  8.58127795E-04  2.67024764E-03
  0.00000000E+00 -1.27393103E-02 -1.27338052E-03 -3.95917393E-03  0.00000000E+00
  1.13517978E-04  8.41179084E-04  6.59102834E-08 -8.52654951E-07 -9.83547963E-07
 -7.17014650E-06  0.00000000E+00  1.22313563E-05 -2.33673565E-05  3.55266033E-05
  0.00000000E+00  3.41251183E-04  7.25689495E-05  3.37397638E-04  0.00000000E+00
  1.42504213E-07 -2.55236905E-07 -2.14477483E-06  5.60394400E-07  0.00000000E+00
  3.55555936E-05  4.36154431E-06 -1.03434555E-05  0.00000000E+00 -1.02325185E-05
  3.40957735E-05  1.56880333E-05  0.00000000E+00  1.33481679E-05  3.82312398E-05
 -5.41777293E-05  1.01188331E-04  0.00000000E+00 -1.32859040E-03 -3.79983755E-04
  2.70969718E-04  0.00000000E+00  4.86364693E-05  4.71470915E-05  4.86364693E-05
  4.71470915E-05 -9.09273061E-06  1.05212745E-04  9.94147807E-01  3.06491712E-02
  1.76457581E-05  9.33351513E-05  0.00000000E+00 -8.95948520E-03 -7.88395488E-04
  7.14293206E-04  0.00000000E+00 -4.28469337E-05  2.59139044E-04 -8.86036063E-05
  1.40957168E-04  0.00000000E+00 -7.07093993E-04  1.27594470E-03 -3.74446926E-04
  0.00000000E+00 -9.88852186E-05 -2.74006619E-04  5.54341414E-05  9.51257617E-05
  0.00000000E+00  3.27230350E-03 -9.83549232E-04 -2.52310434E-03  0.00000000E+00
  3.57995916E-05  2.62565934E-04  7.88608652E-05 -7.34818608E-05  0.00000000E+00
 -3.21256829E-03 -2.52477280E-03  2.54839183E-03  0.00000000E+00 -9.42693957E-05
 -2.83831447E-04 -7.80034947E-05 -3.34190340E-05  0.00000000E+00  2.86019301E-03
  2.59439859E-03  8.47591962E-04  0.00000000E+00 -5.67649392E-05  2.31356924E-04
 -1.41417182E-04  8.83623136E-05  0.00000000E+00 -6.13793897E-04  3.10334554E-04
 -1.22606627E-03  0.00000000E+00  1.78928734E-04  8.52457298E-04 -1.16821325E-05
  3.54173380E-05 -6.83021978E-06  6.77660280E-06  0.00000000E+00 -4.83715859E-04
 -7.50044198E-05  7.70047465E-05  0.00000000E+00  2.25007829E-03 -1.02955017E-03
  1.06110993E-03  0.00000000E+00  9.41701256E-07 -1.64603944E-05  3.77013354E-06
  3.00116880E-05  0.00000000E+00  8.16966284E-06 -2.31355323E-05 -1.54171732E-04
  0.00000000E+00  6.45006796E-04 -1.43042161E-04 -3.26687691E-04  0.00000000E+00
  1.38291436E-05  6.70700983E-05 -5.83506874E-05  7.01529397E-05  0.00000000E+00
 -1.46605094E-03 -4.65689035E-04  4.60168538E-04  0.00000000E+00  4.88151733E-05
 -2.76588386E-06  4.88151733E-05 -2.76588386E-06  4.20259426E-05  9.32033352E-07
 -3.36933165E-06 -1.80517229E-04  5.77588139E-05 -1.35663456E-04  0.00000000E+00
  1.19072955E-03 -1.45514154E-03  9.13493564E-04  0.00000000E+00 -6.49097385E-05
  1.89355285E-04  2.61671028E-05 -8.11459004E-05  0.00000000E+00 -5.25869743E-04
  7.53689354E-04 -2.05768181E-04  0.00000000E+00  9.94182712E-01  3.09518630E-02