Energy Calculation(GC)                                                  
Freq      RB3LYP                                                      6-311G              
Number of atoms                            I               13
Info1-9                                    I   N=           9
          37          36        1002           0           0         100
           6          18        -502
Charge                                     I                0
Multiplicity                               I                1
Number of electrons                        I               82
Number of alpha electrons                  I               41
Number of beta electrons                   I               41
Number of basis functions                  I              145
Number of independent functions            I              145
Number of point charges in /Mol/           I                0
Number of translation vectors              I                0
Atomic numbers                             I   N=          13
           6           7           6           6           6           7
           1          17          17           6           1           1
           1
Nuclear charges                            R   N=          13
  6.00000000E+00  7.00000000E+00  6.00000000E+00  6.00000000E+00  6.00000000E+00
  7.00000000E+00  1.00000000E+00  1.70000000E+01  1.70000000E+01  6.00000000E+00
  1.00000000E+00  1.00000000E+00  1.00000000E+00
Current cartesian coordinates              R   N=          39
  9.25665419E-01 -2.49092124E+00  0.00000000E+00  1.74518969E+00 -1.03583389E-01
  0.00000000E+00 -2.22044605E-16  1.69127807E+00  0.00000000E+00 -2.60616054E+00
  1.21534222E+00  0.00000000E+00 -3.22523262E+00 -1.36042894E+00  0.00000000E+00
 -1.47752630E+00 -3.22505409E+00  0.00000000E+00 -5.17580936E+00 -1.96442914E+00
  0.00000000E+00  3.30518065E+00 -4.92758957E+00  0.00000000E+00  1.13892292E+00
  4.93588342E+00  0.00000000E+00 -4.58601447E+00  3.24276390E+00  0.00000000E+00
 -4.41210587E+00  4.45777688E+00  1.65785584E+00 -4.41210587E+00  4.45777688E+00
 -1.65785584E+00 -6.47292995E+00  2.42013820E+00  0.00000000E+00
Force Field                                I                0
Int Atom Types                             I   N=          13
           0           0           0           0           0           0
           0           0           0           0           0           0
           0
MM charges                                 R   N=          13
  0.00000000E+00  0.00000000E+00  0.00000000E+00  0.00000000E+00  0.00000000E+00
  0.00000000E+00  0.00000000E+00  0.00000000E+00  0.00000000E+00  0.00000000E+00
  0.00000000E+00  0.00000000E+00  0.00000000E+00
Integer atomic weights                     I   N=          13
          12          14          12          12          12          14
           1          35          35          12           1           1
           1
Real atomic weights                        R   N=          13
  1.20000000E+01  1.40030740E+01  1.20000000E+01  1.20000000E+01  1.20000000E+01
  1.40030740E+01  1.00782504E+00  3.49688527E+01  3.49688527E+01  1.20000000E+01
  1.00782504E+00  1.00782504E+00  1.00782504E+00
Atom fragment info                         I   N=          13
           0           0           0           0           0           0
           0           0           0           0           0           0
           0
Atom residue num                           I   N=          13
           0           0           0           0           0           0
           0           0           0           0           0           0
           0
Nuclear spins                              I   N=          13
           0           2           0           0           0           2
           1           3           3           0           1           1
           1
Nuclear ZEff                               R   N=          13
 -3.60000000E+00 -4.55000000E+00 -3.60000000E+00 -3.60000000E+00 -3.60000000E+00
 -4.55000000E+00 -1.00000000E+00 -1.42400000E+01 -1.42400000E+01 -3.60000000E+00
 -1.00000000E+00 -1.00000000E+00 -1.00000000E+00
Nuclear ZNuc                               R   N=          13
  6.00000000E+00  7.00000000E+00  6.00000000E+00  6.00000000E+00  6.00000000E+00
  7.00000000E+00  1.00000000E+00  1.70000000E+01  1.70000000E+01  6.00000000E+00
  1.00000000E+00  1.00000000E+00  1.00000000E+00
Nuclear QMom                               R   N=          13
  0.00000000E+00  2.04400000E+00  0.00000000E+00  0.00000000E+00  0.00000000E+00
  2.04400000E+00  0.00000000E+00 -8.16500000E+00 -8.16500000E+00  0.00000000E+00
  0.00000000E+00  0.00000000E+00  0.00000000E+00
Nuclear GFac                               R   N=          13
  0.00000000E+00  4.03761000E-01  0.00000000E+00  0.00000000E+00  0.00000000E+00
  4.03761000E-01  2.79284600E+00  8.21874000E-01  8.21874000E-01  0.00000000E+00
  2.79284600E+00  2.79284600E+00  2.79284600E+00
MicOpt                                     I   N=          13
          -1          -1          -1          -1          -1          -1
          -1          -1          -1          -1          -1          -1
          -1
Number of contracted shells                I               62
Number of primitive shells                 I              143
Pure/Cartesian d shells                    I                0
Pure/Cartesian f shells                    I                0
Highest angular momentum                   I                1
Largest degree of contraction              I                6
Shell types                                I   N=          62
           0          -1          -1          -1           0          -1
          -1          -1           0          -1          -1          -1
           0          -1          -1          -1           0          -1
          -1          -1           0          -1          -1          -1
           0           0           0           0           0           0
           0           0           0           1           1           1
           1           1           0           0           0           0
           0           0           1           1           1           1
           1           0          -1          -1          -1           0
           0           0           0           0           0           0
           0           0
Number of primitives per shell             I   N=          62
           6           3           1           1           6           3
           1           1           6           3           1           1
           6           3           1           1           6           3
           1           1           6           3           1           1
           3           1           1           6           3           1
           1           1           1           5           2           1
           1           1           6           3           1           1
           1           1           5           2           1           1
           1           6           3           1           1           3
           1           1           3           1           1           3
           1           1
Shell to atom map                          I   N=          62
           1           1           1           1           2           2
           2           2           3           3           3           3
           4           4           4           4           5           5
           5           5           6           6           6           6
           7           7           7           8           8           8
           8           8           8           8           8           8
           8           8           9           9           9           9
           9           9           9           9           9           9
           9          10          10          10          10          11
          11          11          12          12          12          13
          13          13
Primitive exponents                        R   N=         143
  4.56324000E+03  6.82024000E+02  1.54973000E+02  4.44553000E+01  1.30290000E+01
  1.82773000E+00  2.09642000E+01  4.80331000E+00  1.45933000E+00  4.83456000E-01
  1.45585000E-01  6.29348000E+03  9.49044000E+02  2.18776000E+02  6.36916000E+01
  1.88282000E+01  2.72023000E+00  3.06331000E+01  7.02614000E+00  2.11205000E+00
  6.84009000E-01  2.00878000E-01  4.56324000E+03  6.82024000E+02  1.54973000E+02
  4.44553000E+01  1.30290000E+01  1.82773000E+00  2.09642000E+01  4.80331000E+00
  1.45933000E+00  4.83456000E-01  1.45585000E-01  4.56324000E+03  6.82024000E+02
  1.54973000E+02  4.44553000E+01  1.30290000E+01  1.82773000E+00  2.09642000E+01
  4.80331000E+00  1.45933000E+00  4.83456000E-01  1.45585000E-01  4.56324000E+03
  6.82024000E+02  1.54973000E+02  4.44553000E+01  1.30290000E+01  1.82773000E+00
  2.09642000E+01  4.80331000E+00  1.45933000E+00  4.83456000E-01  1.45585000E-01
  6.29348000E+03  9.49044000E+02  2.18776000E+02  6.36916000E+01  1.88282000E+01
  2.72023000E+00  3.06331000E+01  7.02614000E+00  2.11205000E+00  6.84009000E-01
  2.00878000E-01  3.38650000E+01  5.09479000E+00  1.15879000E+00  3.25840000E-01
  1.02741000E-01  1.05819000E+05  1.58720000E+04  3.61965000E+03  1.03080000E+03
  3.39908000E+02  1.24538000E+02  1.24538000E+02  4.95135000E+01  2.08056000E+01
  6.58346000E+00  2.56468000E+00  5.59763000E-01  1.83273000E-01  5.89776000E+02
  1.39849000E+02  4.51413000E+01  1.68733000E+01  2.77152000E+00  6.74110000E+00
  2.77152000E+00  1.02387000E+00  3.81368000E-01  1.09437000E-01  1.05819000E+05
  1.58720000E+04  3.61965000E+03  1.03080000E+03  3.39908000E+02  1.24538000E+02
  1.24538000E+02  4.95135000E+01  2.08056000E+01  6.58346000E+00  2.56468000E+00
  5.59763000E-01  1.83273000E-01  5.89776000E+02  1.39849000E+02  4.51413000E+01
  1.68733000E+01  2.77152000E+00  6.74110000E+00  2.77152000E+00  1.02387000E+00
  3.81368000E-01  1.09437000E-01  4.56324000E+03  6.82024000E+02  1.54973000E+02
  4.44553000E+01  1.30290000E+01  1.82773000E+00  2.09642000E+01  4.80331000E+00
  1.45933000E+00  4.83456000E-01  1.45585000E-01  3.38650000E+01  5.09479000E+00
  1.15879000E+00  3.25840000E-01  1.02741000E-01  3.38650000E+01  5.09479000E+00
  1.15879000E+00  3.25840000E-01  1.02741000E-01  3.38650000E+01  5.09479000E+00
  1.15879000E+00  3.25840000E-01  1.02741000E-01
Contraction coefficients                   R   N=         143
  1.96665025E-03  1.52306019E-02  7.61269097E-02  2.60801033E-01  6.16462078E-01
  2.21006028E-01  1.14660081E-01  9.19999648E-01 -3.03068213E-03  1.00000000E+00
  1.00000000E+00  1.96978815E-03  1.49612859E-02  7.35005308E-02  2.48936766E-01
  6.02459433E-01  2.56201759E-01  1.11906080E-01  9.21666655E-01 -2.56919183E-03
  1.00000000E+00  1.00000000E+00  1.96665025E-03  1.52306019E-02  7.61269097E-02
  2.60801033E-01  6.16462078E-01  2.21006028E-01  1.14660081E-01  9.19999648E-01
 -3.03068213E-03  1.00000000E+00  1.00000000E+00  1.96665025E-03  1.52306019E-02
  7.61269097E-02  2.60801033E-01  6.16462078E-01  2.21006028E-01  1.14660081E-01
  9.19999648E-01 -3.03068213E-03  1.00000000E+00  1.00000000E+00  1.96665025E-03
  1.52306019E-02  7.61269097E-02  2.60801033E-01  6.16462078E-01  2.21006028E-01
  1.14660081E-01  9.19999648E-01 -3.03068213E-03  1.00000000E+00  1.00000000E+00
  1.96978815E-03  1.49612859E-02  7.35005308E-02  2.48936766E-01  6.02459433E-01
  2.56201759E-01  1.11906080E-01  9.21666655E-01 -2.56919183E-03  1.00000000E+00
  1.00000000E+00  2.54938145E-02  1.90373109E-01  8.52161486E-01  1.00000000E+00
  1.00000000E+00  7.38000247E-04  5.71800191E-03  2.94950099E-02  1.17286039E-01
  3.62949121E-01  5.84149195E-01  1.34176973E-01  6.24249876E-01  2.91755942E-01
  1.00000000E+00  1.00000000E+00  1.00000000E+00  1.00000000E+00  3.66556935E-03
  2.83679194E-02  1.24756603E-01  3.39654631E-01  7.47585963E-01 -1.57224381E+00
  9.92388882E-01  1.00000000E+00  1.00000000E+00  1.00000000E+00  7.38000247E-04
  5.71800191E-03  2.94950099E-02  1.17286039E-01  3.62949121E-01  5.84149195E-01
  1.34176973E-01  6.24249876E-01  2.91755942E-01  1.00000000E+00  1.00000000E+00
  1.00000000E+00  1.00000000E+00  3.66556935E-03  2.83679194E-02  1.24756603E-01
  3.39654631E-01  7.47585963E-01 -1.57224381E+00  9.92388882E-01  1.00000000E+00
  1.00000000E+00  1.00000000E+00  1.96665025E-03  1.52306019E-02  7.61269097E-02
  2.60801033E-01  6.16462078E-01  2.21006028E-01  1.14660081E-01  9.19999648E-01
 -3.03068213E-03  1.00000000E+00  1.00000000E+00  2.54938145E-02  1.90373109E-01
  8.52161486E-01  1.00000000E+00  1.00000000E+00  2.54938145E-02  1.90373109E-01
  8.52161486E-01  1.00000000E+00  1.00000000E+00  2.54938145E-02  1.90373109E-01
  8.52161486E-01  1.00000000E+00  1.00000000E+00
P(S=P) Contraction coefficients            R   N=         143
  0.00000000E+00  0.00000000E+00  0.00000000E+00  0.00000000E+00  0.00000000E+00
  0.00000000E+00  4.02486927E-02  2.37593957E-01  8.15853851E-01  1.00000000E+00
  1.00000000E+00  0.00000000E+00  0.00000000E+00  0.00000000E+00  0.00000000E+00
  0.00000000E+00  0.00000000E+00  3.83119186E-02  2.37403116E-01  8.17592398E-01
  1.00000000E+00  1.00000000E+00  0.00000000E+00  0.00000000E+00  0.00000000E+00
  0.00000000E+00  0.00000000E+00  0.00000000E+00  4.02486927E-02  2.37593957E-01
  8.15853851E-01  1.00000000E+00  1.00000000E+00  0.00000000E+00  0.00000000E+00
  0.00000000E+00  0.00000000E+00  0.00000000E+00  0.00000000E+00  4.02486927E-02
  2.37593957E-01  8.15853851E-01  1.00000000E+00  1.00000000E+00  0.00000000E+00
  0.00000000E+00  0.00000000E+00  0.00000000E+00  0.00000000E+00  0.00000000E+00
  4.02486927E-02  2.37593957E-01  8.15853851E-01  1.00000000E+00  1.00000000E+00
  0.00000000E+00  0.00000000E+00  0.00000000E+00  0.00000000E+00  0.00000000E+00
  0.00000000E+00  3.83119186E-02  2.37403116E-01  8.17592398E-01  1.00000000E+00
  1.00000000E+00  0.00000000E+00  0.00000000E+00  0.00000000E+00  0.00000000E+00
  0.00000000E+00  0.00000000E+00  0.00000000E+00  0.00000000E+00  0.00000000E+00
  0.00000000E+00  0.00000000E+00  0.00000000E+00  0.00000000E+00  0.00000000E+00
  0.00000000E+00  0.00000000E+00  0.00000000E+00  0.00000000E+00  0.00000000E+00
  0.00000000E+00  0.00000000E+00  0.00000000E+00  0.00000000E+00  0.00000000E+00
  0.00000000E+00  0.00000000E+00  0.00000000E+00  0.00000000E+00  0.00000000E+00
  0.00000000E+00  0.00000000E+00  0.00000000E+00  0.00000000E+00  0.00000000E+00
  0.00000000E+00  0.00000000E+00  0.00000000E+00  0.00000000E+00  0.00000000E+00
  0.00000000E+00  0.00000000E+00  0.00000000E+00  0.00000000E+00  0.00000000E+00
  0.00000000E+00  0.00000000E+00  0.00000000E+00  0.00000000E+00  0.00000000E+00
  0.00000000E+00  0.00000000E+00  0.00000000E+00  0.00000000E+00  0.00000000E+00
  0.00000000E+00  0.00000000E+00  0.00000000E+00  4.02486927E-02  2.37593957E-01
  8.15853851E-01  1.00000000E+00  1.00000000E+00  0.00000000E+00  0.00000000E+00
  0.00000000E+00  0.00000000E+00  0.00000000E+00  0.00000000E+00  0.00000000E+00
  0.00000000E+00  0.00000000E+00  0.00000000E+00  0.00000000E+00  0.00000000E+00
  0.00000000E+00  0.00000000E+00  0.00000000E+00
Coordinates of each shell                  R   N=         186
  9.25665419E-01 -2.49092124E+00  0.00000000E+00  9.25665419E-01 -2.49092124E+00
  0.00000000E+00  9.25665419E-01 -2.49092124E+00  0.00000000E+00  9.25665419E-01
 -2.49092124E+00  0.00000000E+00  1.74518969E+00 -1.03583389E-01  0.00000000E+00
  1.74518969E+00 -1.03583389E-01  0.00000000E+00  1.74518969E+00 -1.03583389E-01
  0.00000000E+00  1.74518969E+00 -1.03583389E-01  0.00000000E+00 -1.11022302E-16
  1.69127807E+00  0.00000000E+00 -1.11022302E-16  1.69127807E+00  0.00000000E+00
 -1.11022302E-16  1.69127807E+00  0.00000000E+00 -1.11022302E-16  1.69127807E+00
  0.00000000E+00 -2.60616054E+00  1.21534222E+00  0.00000000E+00 -2.60616054E+00
  1.21534222E+00  0.00000000E+00 -2.60616054E+00  1.21534222E+00  0.00000000E+00
 -2.60616054E+00  1.21534222E+00  0.00000000E+00 -3.22523262E+00 -1.36042894E+00
  0.00000000E+00 -3.22523262E+00 -1.36042894E+00  0.00000000E+00 -3.22523262E+00
 -1.36042894E+00  0.00000000E+00 -3.22523262E+00 -1.36042894E+00  0.00000000E+00
 -1.47752630E+00 -3.22505409E+00  0.00000000E+00 -1.47752630E+00 -3.22505409E+00
  0.00000000E+00 -1.47752630E+00 -3.22505409E+00  0.00000000E+00 -1.47752630E+00
 -3.22505409E+00  0.00000000E+00 -5.17580936E+00 -1.96442914E+00  0.00000000E+00
 -5.17580936E+00 -1.96442914E+00  0.00000000E+00 -5.17580936E+00 -1.96442914E+00
  0.00000000E+00  3.30518065E+00 -4.92758957E+00  0.00000000E+00  3.30518065E+00
 -4.92758957E+00  0.00000000E+00  3.30518065E+00 -4.92758957E+00  0.00000000E+00
  3.30518065E+00 -4.92758957E+00  0.00000000E+00  3.30518065E+00 -4.92758957E+00
  0.00000000E+00  3.30518065E+00 -4.92758957E+00  0.00000000E+00  3.30518065E+00
 -4.92758957E+00  0.00000000E+00  3.30518065E+00 -4.92758957E+00  0.00000000E+00
  3.30518065E+00 -4.92758957E+00  0.00000000E+00  3.30518065E+00 -4.92758957E+00
  0.00000000E+00  3.30518065E+00 -4.92758957E+00  0.00000000E+00  1.13892292E+00
  4.93588342E+00  0.00000000E+00  1.13892292E+00  4.93588342E+00  0.00000000E+00
  1.13892292E+00  4.93588342E+00  0.00000000E+00  1.13892292E+00  4.93588342E+00
  0.00000000E+00  1.13892292E+00  4.93588342E+00  0.00000000E+00  1.13892292E+00
  4.93588342E+00  0.00000000E+00  1.13892292E+00  4.93588342E+00  0.00000000E+00
  1.13892292E+00  4.93588342E+00  0.00000000E+00  1.13892292E+00  4.93588342E+00
  0.00000000E+00  1.13892292E+00  4.93588342E+00  0.00000000E+00  1.13892292E+00
  4.93588342E+00  0.00000000E+00 -4.58601447E+00  3.24276390E+00  0.00000000E+00
 -4.58601447E+00  3.24276390E+00  0.00000000E+00 -4.58601447E+00  3.24276390E+00
  0.00000000E+00 -4.58601447E+00  3.24276390E+00  0.00000000E+00 -4.41210587E+00
  4.45777688E+00  1.65785584E+00 -4.41210587E+00  4.45777688E+00  1.65785584E+00
 -4.41210587E+00  4.45777688E+00  1.65785584E+00 -4.41210587E+00  4.45777688E+00
 -1.65785584E+00 -4.41210587E+00  4.45777688E+00 -1.65785584E+00 -4.41210587E+00
  4.45777688E+00 -1.65785584E+00 -6.47292995E+00  2.42013820E+00  0.00000000E+00
 -6.47292995E+00  2.42013820E+00  0.00000000E+00 -6.47292995E+00  2.42013820E+00
  0.00000000E+00
Constraint Structure                       R   N=          39
  9.25665419E-01 -2.49092124E+00  0.00000000E+00  1.74518969E+00 -1.03583389E-01
  0.00000000E+00 -1.11022302E-16  1.69127807E+00  0.00000000E+00 -2.60616054E+00
  1.21534222E+00  0.00000000E+00 -3.22523262E+00 -1.36042894E+00  0.00000000E+00
 -1.47752630E+00 -3.22505409E+00  0.00000000E+00 -5.17580936E+00 -1.96442914E+00
  0.00000000E+00  3.30518065E+00 -4.92758957E+00  0.00000000E+00  1.13892292E+00
  4.93588342E+00  0.00000000E+00 -4.58601447E+00  3.24276390E+00  0.00000000E+00
 -4.41210587E+00  4.45777688E+00  1.65785584E+00 -4.41210587E+00  4.45777688E+00
 -1.65785584E+00 -6.47292995E+00  2.42013820E+00  0.00000000E+00
Num ILSW                                   I              100
ILSW                                       I   N=         100
           0           0           0           0           2           0
           0           0           0           0         402          -1
           0           0           0           0           2           0
           0           0           1           0           1           0
           1           0           0           0           0           0
           0           0      100000           0          -1           0
           0           0           0           0           0           0
           0           0           0           1           0           0
           0           0           1           0           0           0
           0           0           4          41           0           0
           0           0           5           0           0           0
           0           0           0           0           0           0
           0           0           0           0           0           0
           0           0           0           0           0           0
           0           0           0           0           0           0
           0           0           0           0           0           0
           0           0           0           0
Num RLSW                                   I               41
RLSW                                       R   N=          41
  8.00000000E-01  7.20000000E-01  1.00000000E+00  8.10000000E-01  2.00000000E-01
  0.00000000E+00  0.00000000E+00  1.00000000E+00  0.00000000E+00  0.00000000E+00
  0.00000000E+00  0.00000000E+00  1.00000000E+00  0.00000000E+00  0.00000000E+00
  0.00000000E+00  0.00000000E+00  1.00000000E+00  0.00000000E+00  0.00000000E+00
  0.00000000E+00  0.00000000E+00  1.00000000E+00  0.00000000E+00  0.00000000E+00
  0.00000000E+00  0.00000000E+00  1.00000000E+00  0.00000000E+00  0.00000000E+00
  0.00000000E+00  0.00000000E+00  1.00000000E+00  0.00000000E+00  0.00000000E+00
  0.00000000E+00  0.00000000E+00  0.00000000E+00  1.00000000E+00  1.00000000E+00
  0.00000000E+00
MxBond                                     I                4
NBond                                      I   N=          13
           3           2           3           3           3           2
           1           1           1           4           1           1
           1
IBond                                      I   N=          52
           2           6           8           0           1           3
           0           0           2           4           9           0
           3           5          10           0           4           6
           7           0           1           5           0           0
           5           0           0           0           1           0
           0           0           3           0           0           0
           4          11          12          13          10           0
           0           0          10           0           0           0
          10           0           0           0
RBond                                      R   N=          52
  2.00000000E+00  2.00000000E+00  1.00000000E+00  0.00000000E+00  2.00000000E+00
  2.00000000E+00  0.00000000E+00  0.00000000E+00  2.00000000E+00  1.50000000E+00
  1.00000000E+00  0.00000000E+00  1.50000000E+00  1.50000000E+00  1.00000000E+00
  0.00000000E+00  1.50000000E+00  2.00000000E+00  1.00000000E+00  0.00000000E+00
  2.00000000E+00  2.00000000E+00  0.00000000E+00  0.00000000E+00  1.00000000E+00
  0.00000000E+00  0.00000000E+00  0.00000000E+00  1.00000000E+00  0.00000000E+00
  0.00000000E+00  0.00000000E+00  1.00000000E+00  0.00000000E+00  0.00000000E+00
  0.00000000E+00  1.00000000E+00  1.00000000E+00  1.00000000E+00  1.00000000E+00
  1.00000000E+00  0.00000000E+00  0.00000000E+00  0.00000000E+00  1.00000000E+00
  0.00000000E+00  0.00000000E+00  0.00000000E+00  1.00000000E+00  0.00000000E+00
  0.00000000E+00  0.00000000E+00
Virial Ratio                               R      2.002553440360616E+00
SCF Energy                                 R     -1.222816463012507E+03
Total Energy                               R     -1.222816463012507E+03
RMS Force                                  R      1.896965593434255E-04
RMS Density                                R      6.340394431036161E-09
External E-field                           R   N=          35
  0.00000000E+00  0.00000000E+00  0.00000000E+00  0.00000000E+00  0.00000000E+00
  0.00000000E+00  0.00000000E+00  0.00000000E+00  0.00000000E+00  0.00000000E+00
  0.00000000E+00  0.00000000E+00  0.00000000E+00  0.00000000E+00  0.00000000E+00
  0.00000000E+00  0.00000000E+00  0.00000000E+00  0.00000000E+00  0.00000000E+00
  0.00000000E+00  0.00000000E+00  0.00000000E+00  0.00000000E+00  0.00000000E+00
  0.00000000E+00  0.00000000E+00  0.00000000E+00  0.00000000E+00  0.00000000E+00
  0.00000000E+00  0.00000000E+00  0.00000000E+00  0.00000000E+00  0.00000000E+00
IOpCl                                      I                0
IROHF                                      I                0
Alpha Orbital Energies                     R   N=         145
 -1.01581888E+02 -1.01570767E+02 -1.43796642E+01 -1.43717922E+01 -1.03417948E+01
 -1.03270797E+01 -1.02724823E+01 -1.02553140E+01 -1.02096346E+01 -9.49589145E+00
 -9.48469820E+00 -7.26140572E+00 -7.25055593E+00 -7.25018978E+00 -7.24926964E+00
 -7.23889252E+00 -7.23778066E+00 -1.06864439E+00 -9.64315161E-01 -9.04025064E-01
 -8.62772225E-01 -8.36751102E-01 -7.46475854E-01 -7.01956418E-01 -6.71491459E-01
 -5.88771449E-01 -5.42897492E-01 -4.99295146E-01 -4.74283548E-01 -4.65118713E-01
 -4.53927941E-01 -4.50535792E-01 -4.34020019E-01 -3.94776377E-01 -3.59448891E-01
 -3.45826178E-01 -3.42506599E-01 -3.32351498E-01 -3.29634587E-01 -2.96893513E-01
 -2.89297864E-01 -8.43602356E-02 -6.93328333E-02 -2.52978081E-02  5.81408184E-03
  3.24197734E-02  6.48012895E-02  6.88442479E-02  9.83819079E-02  1.10201133E-01
  1.69383623E-01  1.86088167E-01  2.07771686E-01  2.40024557E-01  2.65294738E-01
  2.71806386E-01  2.75307408E-01  2.75672890E-01  2.83709044E-01  2.86158287E-01
  2.92234998E-01  2.97112172E-01  3.22271642E-01  3.36730063E-01  3.61125907E-01
  3.64913973E-01  3.91777969E-01  4.31262318E-01  4.52381588E-01  4.74065982E-01
  4.80262415E-01  4.88551681E-01  4.98537755E-01  5.15465125E-01  5.27587458E-01
  5.50436866E-01  5.63223793E-01  5.64317988E-01  5.92090530E-01  6.22879403E-01
  6.41518118E-01  6.67995968E-01  6.97044417E-01  7.27202853E-01  7.50940488E-01
  7.85837075E-01  7.93955563E-01  8.28962220E-01  8.49782246E-01  8.66849479E-01
  8.99676848E-01  9.72214587E-01  1.00921066E+00  1.08097596E+00  1.12588452E+00
  1.30040807E+00  1.31817790E+00  2.08274870E+00  2.08701750E+00  2.12433837E+00
  2.12633210E+00  2.19743403E+00  2.21081451E+00  2.22258078E+00  2.23870147E+00
  2.27286587E+00  2.27994858E+00  2.47532733E+00  2.53622216E+00  2.54989341E+00
  2.62224974E+00  2.66269439E+00  2.69630993E+00  2.71663584E+00  2.75968114E+00
  2.83062646E+00  2.86160805E+00  2.92600371E+00  2.99418234E+00  3.03010294E+00
  3.09961431E+00  3.17418268E+00  3.64299101E+00  3.70675615E+00  3.76422171E+00
  3.87983286E+00  4.01455058E+00  4.15738147E+00  9.51310353E+00  9.54455010E+00
  2.31417004E+01  2.32688678E+01  2.33418104E+01  2.34385566E+01  2.35924333E+01
  2.53668120E+01  2.53839427E+01  2.54690444E+01  2.55407699E+01  2.58745163E+01
  2.60671778E+01  3.53491756E+01  3.54032452E+01  2.15460032E+02  2.15502604E+02
Alpha MO coefficients                      R   N=       21025
 -9.91461457E-07  2.81557166E-06  2.03486817E-06  1.13748352E-06  0.00000000E+00
 -2.48705371E-05 -5.92155621E-06 -1.18233813E-05  0.00000000E+00  1.06926476E-04
 -1.28642815E-04  8.23577455E-05  0.00000000E+00 -2.75369956E-07  8.98178918E-07
  7.90281738E-07  3.53334513E-08  0.00000000E+00 -8.89130330E-07 -1.87165699E-06
  2.76509733E-07  0.00000000E+00  4.00353521E-06 -1.90239665E-05 -7.53808988E-05
  0.00000000E+00 -1.89527992E-08  1.54872565E-06  1.69462431E-05  3.55014512E-05
  0.00000000E+00 -5.07999779E-06 -5.18604593E-05 -9.67448785E-05  0.00000000E+00
 -1.42526689E-04  4.09338266E-04  5.31571859E-04  0.00000000E+00 -1.40011783E-06
  3.85486018E-06  9.90844537E-06  2.04878846E-06  0.00000000E+00 -1.20741604E-05
 -4.82193467E-05 -6.48040668E-06  0.00000000E+00  1.50972285E-04  5.20672574E-04
 -2.45802625E-04  0.00000000E+00 -7.52492868E-07  2.07335338E-06 -1.33031340E-06
  1.20655215E-06  0.00000000E+00 -1.71890489E-05  2.72074837E-06 -1.30322934E-05
  0.00000000E+00 -4.76551892E-05 -1.31832505E-04  7.71390300E-05  0.00000000E+00
 -1.52637520E-07  5.13472164E-07 -3.63685210E-07 -3.65931538E-07  0.00000000E+00
 -6.04869524E-07  6.47881454E-07  5.60027890E-07  0.00000000E+00 -8.83153553E-06
 -5.19008957E-05 -1.41818147E-05  0.00000000E+00  1.31774495E-06 -2.19913824E-05
 -2.03133292E-05 -2.42572311E-06 -3.34916367E-06 -2.46895962E-06  5.03325467E-06
 -1.56138124E-05  6.62632562E-05 -3.18588119E-06  2.81803262E-06  0.00000000E+00
 -1.65350720E-06  1.44518180E-06  0.00000000E+00  8.34418991E-06 -7.75554558E-06
  0.00000000E+00 -1.70969332E-05  1.76452010E-05  0.00000000E+00 -8.19841970E-06
  1.18693702E-05  0.00000000E+00  4.11608819E-01  6.54082890E-01  1.49668608E-02
 -3.90197921E-03  1.37730116E-03 -9.73318793E-04 -4.31497810E-05 -8.36716572E-05
  0.00000000E+00 -5.83527816E-06 -4.80732829E-06  0.00000000E+00  4.02770001E-05
  4.84751257E-05  0.00000000E+00 -2.68140304E-05  2.82726299E-05  0.00000000E+00
  1.08749301E-04  2.37793230E-04  0.00000000E+00 -1.74584194E-06  5.05911381E-06
  9.93355588E-06  4.84140702E-06  0.00000000E+00 -3.59865788E-05 -3.05604448E-05
 -1.26701022E-05  0.00000000E+00  4.33105994E-04  1.77891324E-04 -9.62214558E-05
  0.00000000E+00  1.42276578E-05 -7.87205890E-05  3.80226346E-05  1.42276578E-05
 -7.87205890E-05  3.80226346E-05 -8.67313773E-06  6.71469962E-08  1.47226079E-05
 -1.25100465E-06  5.15508967E-06  3.23389205E-05 -3.35810758E-05  0.00000000E+00
 -2.76889145E-05 -9.21943342E-05  9.63554889E-05  0.00000000E+00  2.16722497E-04
  3.47283817E-04 -3.63101162E-04  0.00000000E+00 -4.49550894E-07  1.50993790E-06
  2.27969607E-06 -4.36026417E-06  0.00000000E+00  8.06106560E-07 -7.52587775E-06
  1.94137136E-05  0.00000000E+00 -6.53047856E-05  2.66049229E-05 -2.62067693E-05
  0.00000000E+00 -7.71411925E-07  2.09054116E-06  1.62726167E-06  6.92327008E-07
  0.00000000E+00 -2.23473719E-05 -5.98089854E-06  4.62876527E-06  0.00000000E+00
  3.08911246E-04 -6.96542307E-05 -2.26272580E-04  0.00000000E+00 -2.74754645E-08
 -1.01989514E-08  6.00996146E-07 -8.67330380E-07  0.00000000E+00  6.67922945E-06
 -4.78571449E-06  5.67099694E-06  0.00000000E+00 -3.33304738E-04 -1.40740776E-04
  1.42170800E-04  0.00000000E+00 -9.86850351E-07  2.72198515E-06 -1.71607342E-06
 -2.23889958E-06  0.00000000E+00 -2.71747991E-05  3.21655157E-06  9.76815991E-06
  0.00000000E+00  2.66052389E-04  2.09376180E-04  5.84074864E-05  0.00000000E+00
 -5.34287649E-07  1.80095561E-06  3.98879081E-06 -2.07611665E-06  0.00000000E+00