 Entering Link 1 = C:\G09W\l1.exe PID=       860.
  
 Copyright (c) 1988,1990,1992,1993,1995,1998,2003,2009,2013,
            Gaussian, Inc.  All Rights Reserved.
  
 This is part of the Gaussian(R) 09 program.  It is based on
 the Gaussian(R) 03 system (copyright 2003, Gaussian, Inc.),
 the Gaussian(R) 98 system (copyright 1998, Gaussian, Inc.),
 the Gaussian(R) 94 system (copyright 1995, Gaussian, Inc.),
 the Gaussian 92(TM) system (copyright 1992, Gaussian, Inc.),
 the Gaussian 90(TM) system (copyright 1990, Gaussian, Inc.),
 the Gaussian 88(TM) system (copyright 1988, Gaussian, Inc.),
 the Gaussian 86(TM) system (copyright 1986, Carnegie Mellon
 University), and the Gaussian 82(TM) system (copyright 1983,
 Carnegie Mellon University). Gaussian is a federally registered
 trademark of Gaussian, Inc.
  
 This software contains proprietary and confidential information,
 including trade secrets, belonging to Gaussian, Inc.
  
 This software is provided under written license and may be
 used, copied, transmitted, or stored only in accord with that
 written license.
  
 The following legend is applicable only to US Government
 contracts under FAR:
  
                    RESTRICTED RIGHTS LEGEND
  
 Use, reproduction and disclosure by the US Government is
 subject to restrictions as set forth in subparagraphs (a)
 and (c) of the Commercial Computer Software - Restricted
 Rights clause in FAR 52.227-19.
  
 Gaussian, Inc.
 340 Quinnipiac St., Bldg. 40, Wallingford CT 06492
  
  
 ---------------------------------------------------------------
 Warning -- This program may not be used in any manner that
 competes with the business of Gaussian, Inc. or will provide
 assistance to any competitor of Gaussian, Inc.  The licensee
 of this program is prohibited from giving any competitor of
 Gaussian, Inc. access to this program.  By using this program,
 the user acknowledges that Gaussian, Inc. is engaged in the
 business of creating and licensing software in the field of
 computational chemistry and represents and warrants to the
 licensee that it is not a competitor of Gaussian, Inc. and that
 it will not use this program in any manner prohibited above.
 ---------------------------------------------------------------
  

 Cite this work as:
 Gaussian 09, Revision D.01,
 M. J. Frisch, G. W. Trucks, H. B. Schlegel, G. E. Scuseria, 
 M. A. Robb, J. R. Cheeseman, G. Scalmani, V. Barone, B. Mennucci, 
 G. A. Petersson, H. Nakatsuji, M. Caricato, X. Li, H. P. Hratchian, 
 A. F. Izmaylov, J. Bloino, G. Zheng, J. L. Sonnenberg, M. Hada, 
 M. Ehara, K. Toyota, R. Fukuda, J. Hasegawa, M. Ishida, T. Nakajima, 
 Y. Honda, O. Kitao, H. Nakai, T. Vreven, J. A. Montgomery, Jr., 
 J. E. Peralta, F. Ogliaro, M. Bearpark, J. J. Heyd, E. Brothers, 
 K. N. Kudin, V. N. Staroverov, T. Keith, R. Kobayashi, J. Normand, 
 K. Raghavachari, A. Rendell, J. C. Burant, S. S. Iyengar, J. Tomasi, 
 M. Cossi, N. Rega, J. M. Millam, M. Klene, J. E. Knox, J. B. Cross, 
 V. Bakken, C. Adamo, J. Jaramillo, R. Gomperts, R. E. Stratmann, 
 O. Yazyev, A. J. Austin, R. Cammi, C. Pomelli, J. W. Ochterski, 
 R. L. Martin, K. Morokuma, V. G. Zakrzewski, G. A. Voth, 
 P. Salvador, J. J. Dannenberg, S. Dapprich, A. D. Daniels, 
 O. Farkas, J. B. Foresman, J. V. Ortiz, J. Cioslowski, 
 and D. J. Fox, Gaussian, Inc., Wallingford CT, 2013.
 
 ******************************************
 Gaussian 09:  IA32W-G09RevD.01 24-Apr-2013
                01-Apr-2022 
 ******************************************
 %nprocshared=4
 Will use up to    4 processors via shared memory.
 %mem=1GB
 %chk=D:\mindmap\gaussian\calculate\opt_freq\QM1\6-311g.chk
 -------------------------------------------------
 # opt freq b3lyp/6-311g pop=npa geom=connectivity
 -------------------------------------------------
 1/14=-1,18=20,19=15,26=3,38=1,57=2/1,3;
 2/9=110,12=2,17=6,18=5,40=1/2;
 3/5=4,6=6,11=2,16=1,25=1,30=1,71=1,74=-5/1,2,3;
 4//1;
 5/5=2,38=5/2;
 6/7=2,8=2,9=2,10=2,28=1,40=-1/1,7;
 7//1,2,3,16;
 1/14=-1,18=20,19=15,26=3/3(2);
 2/9=110/2;
 99//99;
 2/9=110/2;
 3/5=4,6=6,11=2,16=1,25=1,30=1,71=1,74=-5/1,2,3;
 4/5=5,16=3,69=1/1;
 5/5=2,38=5/2;
 7//1,2,3,16;
 1/14=-1,18=20,19=15,26=3/3(-5);
 2/9=110/2;
 6/7=2,8=2,9=2,10=2,19=2,28=1,40=-1/1,7;
 99/9=1/99;
 ----------------------
 Energy Calculation(GC)
 ----------------------
 Symbolic Z-matrix:
 Charge =  0 Multiplicity = 1
 C                    -1.4104    0.08457   0. 
 N                    -0.43264  -0.86232   0. 
 C                     0.83472  -0.39869   0. 
 C                     1.13303   0.97771   0. 
 C                     0.03969   1.86541   0. 
 N                    -1.23931   1.43492   0. 
 H                     0.18768   2.9601    0. 
 Cl                   -3.07099  -0.49857   0. 
 Cl                    2.1092   -1.61248   0. 
 C                     2.58607   1.4879    0. 
 H                     3.0897    1.13014   0.87365 
 H                     3.0897    1.13014  -0.87365 
 H                     2.58838   2.5579    0. 
 

 GradGradGradGradGradGradGradGradGradGradGradGradGradGradGradGradGradGrad
 Berny optimization.
 Initialization pass.
                           ----------------------------
                           !    Initial Parameters    !
                           ! (Angstroms and Degrees)  !
 --------------------------                            --------------------------
 ! Name  Definition              Value          Derivative Info.                !
 --------------------------------------------------------------------------------
 ! R1    R(1,2)                  1.3611         estimate D2E/DX2                !
 ! R2    R(1,6)                  1.3611         estimate D2E/DX2                !
 ! R3    R(1,8)                  1.76           estimate D2E/DX2                !
 ! R4    R(2,3)                  1.3495         estimate D2E/DX2                !
 ! R5    R(3,4)                  1.4084         estimate D2E/DX2                !
 ! R6    R(3,9)                  1.76           estimate D2E/DX2                !
 ! R7    R(4,5)                  1.4083         estimate D2E/DX2                !
 ! R8    R(4,10)                 1.54           estimate D2E/DX2                !
 ! R9    R(5,6)                  1.3495         estimate D2E/DX2                !
 ! R10   R(5,7)                  1.1046         estimate D2E/DX2                !
 ! R11   R(10,11)                1.07           estimate D2E/DX2                !
 ! R12   R(10,12)                1.07           estimate D2E/DX2                !
 ! R13   R(10,13)                1.07           estimate D2E/DX2                !
 ! A1    A(2,1,6)              126.8598         estimate D2E/DX2                !
 ! A2    A(2,1,8)              116.5695         estimate D2E/DX2                !
 ! A3    A(6,1,8)              116.5707         estimate D2E/DX2                !
 ! A4    A(1,2,3)              115.8253         estimate D2E/DX2                !
 ! A5    A(2,3,4)              122.3225         estimate D2E/DX2                !
 ! A6    A(2,3,9)              116.3034         estimate D2E/DX2                !
 ! A7    A(4,3,9)              121.3741         estimate D2E/DX2                !
 ! A8    A(3,4,5)              116.8447         estimate D2E/DX2                !
 ! A9    A(3,4,10)             121.576          estimate D2E/DX2                !
 ! A10   A(5,4,10)             121.5794         estimate D2E/DX2                !
 ! A11   A(4,5,6)              122.3238         estimate D2E/DX2                !
 ! A12   A(4,5,7)              121.374          estimate D2E/DX2                !
 ! A13   A(6,5,7)              116.3023         estimate D2E/DX2                !
 ! A14   A(1,6,5)              115.824          estimate D2E/DX2                !
 ! A15   A(4,10,11)            109.4713         estimate D2E/DX2                !
 ! A16   A(4,10,12)            109.4713         estimate D2E/DX2                !
 ! A17   A(4,10,13)            109.4712         estimate D2E/DX2                !
 ! A18   A(11,10,12)           109.4706         estimate D2E/DX2                !
 ! A19   A(11,10,13)           109.4714         estimate D2E/DX2                !
 ! A20   A(12,10,13)           109.4714         estimate D2E/DX2                !
 ! D1    D(6,1,2,3)              0.0            estimate D2E/DX2                !
 ! D2    D(8,1,2,3)            180.0            estimate D2E/DX2                !
 ! D3    D(2,1,6,5)              0.0            estimate D2E/DX2                !
 ! D4    D(8,1,6,5)            180.0            estimate D2E/DX2                !
 ! D5    D(1,2,3,4)              0.0            estimate D2E/DX2                !
 ! D6    D(1,2,3,9)            180.0            estimate D2E/DX2                !
 ! D7    D(2,3,4,5)              0.0            estimate D2E/DX2                !
 ! D8    D(2,3,4,10)           180.0            estimate D2E/DX2                !
 ! D9    D(9,3,4,5)            180.0            estimate D2E/DX2                !
 ! D10   D(9,3,4,10)             0.0            estimate D2E/DX2                !
 ! D11   D(3,4,5,6)              0.0            estimate D2E/DX2                !
 ! D12   D(3,4,5,7)            180.0            estimate D2E/DX2                !
 ! D13   D(10,4,5,6)           180.0            estimate D2E/DX2                !
 ! D14   D(10,4,5,7)             0.0            estimate D2E/DX2                !
 ! D15   D(3,4,10,11)          -59.9997         estimate D2E/DX2                !
 ! D16   D(3,4,10,12)           59.9997         estimate D2E/DX2                !
 ! D17   D(3,4,10,13)          180.0            estimate D2E/DX2                !
 ! D18   D(5,4,10,11)          120.0003         estimate D2E/DX2                !
 ! D19   D(5,4,10,12)         -120.0003         estimate D2E/DX2                !
 ! D20   D(5,4,10,13)            0.0            estimate D2E/DX2                !
 ! D21   D(4,5,6,1)              0.0            estimate D2E/DX2                !
 ! D22   D(7,5,6,1)            180.0            estimate D2E/DX2                !
 --------------------------------------------------------------------------------
 Trust Radius=3.00D-01 FncErr=1.00D-07 GrdErr=1.00D-06
 Number of steps in this run=     65 maximum allowed number of steps=    100.
 GradGradGradGradGradGradGradGradGradGradGradGradGradGradGradGradGradGrad

                          Input orientation:                          
 ---------------------------------------------------------------------
 Center     Atomic      Atomic             Coordinates (Angstroms)
 Number     Number       Type             X           Y           Z
 ---------------------------------------------------------------------
      1          6           0       -1.410404    0.084567    0.000000
      2          7           0       -0.432644   -0.862319    0.000000
      3          6           0        0.834720   -0.398686    0.000000
      4          6           0        1.133033    0.977715    0.000000
      5          6           0        0.039686    1.865413    0.000000
      6          7           0       -1.239308    1.434916    0.000000
      7          1           0        0.187683    2.960096    0.000000
      8         17           0       -3.070990   -0.498574    0.000000
      9         17           0        2.109202   -1.612480    0.000000
     10          6           0        2.586067    1.487903    0.000000
     11          1           0        3.089698    1.130143    0.873646
     12          1           0        3.089698    1.130143   -0.873646
     13          1           0        2.588383    2.557901    0.000000
 ---------------------------------------------------------------------
                    Distance matrix (angstroms):
                    1          2          3          4          5
     1  C    0.000000
     2  N    1.361105   0.000000
     3  C    2.296544   1.349507   0.000000
     4  C    2.695697   2.416003   1.408357   0.000000
     5  C    2.296557   2.768324   2.399631   1.408338   0.000000
     6  N    1.361145   2.434747   2.768337   2.415995   1.349501
     7  H    3.289764   3.872423   3.420537   2.196252   1.104642
     8  Cl   1.760000   2.663302   3.906987   4.455697   3.907012
     9  Cl   3.907377   2.650231   1.760000   2.768035   4.047053
    10  C    4.235697   3.825724   2.574186   1.540000   2.574212
    11  H    4.701851   4.140056   2.861032   2.148263   3.256756
    12  H    4.701851   4.140056   2.861032   2.148263   3.256756
    13  H    4.701881   4.563388   3.437549   2.148263   2.641098
                    6          7          8          9         10
     6  N    0.000000
     7  H    2.088654   0.000000
     8  Cl   2.663352   4.751983   0.000000
     9  Cl   4.527598   4.959908   5.298602   0.000000
    10  C    3.825741   2.814178   5.995697   3.136842   0.000000
    11  H    4.426786   3.540294   6.431956   3.040824   1.069998
    12  H    4.426786   3.540294   6.431956   3.040824   1.069998
    13  H    3.989024   2.434158   6.431994   4.197820   1.070000
                   11         12         13
    11  H    0.000000
    12  H    1.747293   0.000000
    13  H    1.747303   1.747303   0.000000
 Stoichiometry    C5H4Cl2N2
 Framework group  CS[SG(C5H2Cl2N2),X(H2)]
 Deg. of freedom    22
 Full point group                 CS      NOp   2
 Largest Abelian subgroup         CS      NOp   2
 Largest concise Abelian subgroup CS      NOp   2
                         Standard orientation:                         
 ---------------------------------------------------------------------
 Center     Atomic      Atomic             Coordinates (Angstroms)
 Number     Number       Type             X           Y           Z
 ---------------------------------------------------------------------
      1          6           0        0.531562   -1.309134    0.000000
      2          7           0        0.964585   -0.018747    0.000000
      3          6           0        0.000000    0.925045    0.000000
      4          6           0       -1.370574    0.601012    0.000000
      5          6           0       -1.700371   -0.768166    0.000000
      6          7           0       -0.760674   -1.736733    0.000000
      7          1           0       -2.751950   -1.106419    0.000000
      8         17           0        1.773462   -2.556246    0.000000
      9         17           0        0.545984    2.598216    0.000000
     10          6           0       -2.457191    1.692279    0.000000
     11          1           0       -2.351424    2.300926    0.873646
     12          1           0       -2.351424    2.300926   -0.873646
     13          1           0       -3.423708    1.233210    0.000000
 ---------------------------------------------------------------------
 Rotational constants (GHZ):      2.1149104      0.7599641      0.5609794
 Standard basis: 6-311G (5D, 7F)
 There are   111 symmetry adapted cartesian basis functions of A'  symmetry.
 There are    34 symmetry adapted cartesian basis functions of A"  symmetry.
 There are   111 symmetry adapted basis functions of A'  symmetry.
 There are    34 symmetry adapted basis functions of A"  symmetry.
   145 basis functions,   288 primitive gaussians,   145 cartesian basis functions
    41 alpha electrons       41 beta electrons
       nuclear repulsion energy       554.7204222427 Hartrees.
 NAtoms=   13 NActive=   13 NUniq=   12 SFac= 1.17D+00 NAtFMM=   60 NAOKFM=F Big=F
 Integral buffers will be    262144 words long.
 Raffenetti 2 integral format.
 Two-electron integral symmetry is turned on.
 One-electron integrals computed using PRISM.
 NBasis=   145 RedAO= T EigKep=  1.33D-03  NBF=   111    34
 NBsUse=   145 1.00D-06 EigRej= -1.00D+00 NBFU=   111    34
 ExpMin= 1.03D-01 ExpMax= 1.06D+05 ExpMxC= 3.62D+03 IAcc=2 IRadAn=         4 AccDes= 0.00D+00
 Harris functional with IExCor=  402 and IRadAn=       4 diagonalized for initial guess.
 HarFok:  IExCor=  402 AccDes= 0.00D+00 IRadAn=         4 IDoV= 1 UseB2=F ITyADJ=14
 ICtDFT=  3500011 ScaDFX=  1.000000  1.000000  1.000000  1.000000
 FoFCou: FMM=F IPFlag=           0 FMFlag=      100000 FMFlg1=           0
         NFxFlg=           0 DoJE=T BraDBF=F KetDBF=T FulRan=T
         wScrn=  0.000000 ICntrl=     500 IOpCl=  0 I1Cent=   200000004 NGrid=           0
         NMat0=    1 NMatS0=      1 NMatT0=    0 NMatD0=    1 NMtDS0=    0 NMtDT0=    0
 Petite list used in FoFCou.
 Initial guess orbital symmetries:
       Occupied  (A') (A') (A') (A') (A') (A') (A') (A') (A') (A')
                 (A') (A') (A') (A') (A") (A") (A') (A') (A') (A')
                 (A') (A') (A') (A') (A') (A') (A') (A") (A') (A')
                 (A") (A') (A') (A") (A') (A") (A') (A') (A") (A')
                 (A")
       Virtual   (A") (A") (A') (A') (A") (A') (A') (A') (A") (A')
                 (A') (A') (A') (A') (A') (A") (A') (A') (A') (A")
                 (A') (A") (A') (A') (A') (A") (A') (A") (A') (A')
                 (A') (A') (A") (A') (A') (A") (A') (A") (A') (A')
                 (A") (A') (A') (A') (A") (A') (A') (A') (A') (A')
                 (A') (A') (A') (A') (A') (A') (A") (A") (A') (A")
                 (A') (A') (A') (A') (A') (A') (A") (A") (A") (A')
                 (A') (A") (A') (A') (A') (A') (A") (A') (A') (A')
                 (A') (A") (A') (A") (A') (A') (A') (A') (A') (A')
                 (A') (A') (A') (A') (A") (A") (A') (A') (A') (A')
                 (A') (A') (A') (A')
 The electronic state of the initial guess is 1-A'.
 Keep R1 ints in memory in symmetry-blocked form, NReq=86443437.
 Requested convergence on RMS density matrix=1.00D-08 within 128 cycles.
 Requested convergence on MAX density matrix=1.00D-06.
 Requested convergence on             energy=1.00D-06.
 No special actions if energy rises.
 Integral accuracy reduced to 1.0D-05 until final iterations.
 Initial convergence to 1.0D-05 achieved.  Increase integral accuracy.
 SCF Done:  E(RB3LYP) =  -1222.81064683     A.U. after   16 cycles
            NFock= 16  Conv=0.35D-08     -V/T= 2.0026

 **********************************************************************

            Population analysis using the SCF density.

 **********************************************************************

 Orbital symmetries:
       Occupied  (A') (A') (A') (A') (A') (A') (A') (A') (A') (A')
                 (A') (A') (A") (A') (A') (A") (A') (A') (A') (A')
                 (A') (A') (A') (A') (A') (A') (A') (A") (A') (A')
                 (A") (A') (A') (A") (A") (A') (A') (A') (A") (A")
                 (A')
       Virtual   (A") (A") (A') (A') (A') (A') (A") (A') (A") (A')
                 (A') (A') (A') (A') (A') (A') (A") (A') (A") (A")
                 (A') (A') (A') (A") (A') (A') (A') (A") (A') (A")
                 (A') (A') (A') (A') (A") (A') (A") (A') (A') (A')
                 (A") (A') (A') (A') (A") (A') (A') (A') (A') (A')
                 (A') (A') (A') (A') (A') (A') (A") (A") (A') (A')
                 (A") (A') (A') (A') (A') (A') (A") (A") (A") (A')
                 (A') (A") (A') (A') (A') (A') (A") (A') (A') (A')
                 (A') (A") (A') (A") (A') (A') (A') (A') (A') (A')
                 (A') (A') (A') (A') (A") (A") (A') (A') (A') (A')
                 (A') (A') (A') (A')
 The electronic state is 1-A'.
 Alpha  occ. eigenvalues -- -101.58764-101.57322 -14.37707 -14.36948 -10.33984
 Alpha  occ. eigenvalues --  -10.32369 -10.27151 -10.25180 -10.20260  -9.50269
 Alpha  occ. eigenvalues --   -9.48797  -7.26813  -7.25685  -7.25582  -7.25372
 Alpha  occ. eigenvalues --   -7.24212  -7.24088  -1.05179  -0.95882  -0.90867
 Alpha  occ. eigenvalues --   -0.87236  -0.83086  -0.73933  -0.69347  -0.66294
 Alpha  occ. eigenvalues --   -0.58117  -0.54023  -0.49214  -0.46761  -0.46450
 Alpha  occ. eigenvalues --   -0.45385  -0.44996  -0.43718  -0.39901  -0.36046
 Alpha  occ. eigenvalues --   -0.34866  -0.34017  -0.33380  -0.32799  -0.29109
 Alpha  occ. eigenvalues --   -0.28747
 Alpha virt. eigenvalues --   -0.08294  -0.06887  -0.00967   0.02100   0.03574
 Alpha virt. eigenvalues --    0.06661   0.07023   0.10152   0.10862   0.16076
 Alpha virt. eigenvalues --    0.18074   0.20615   0.23570   0.25952   0.26514
 Alpha virt. eigenvalues --    0.27763   0.27776   0.28045   0.28501   0.29133
 Alpha virt. eigenvalues --    0.29769   0.32029   0.33689   0.36467   0.36501
 Alpha virt. eigenvalues --    0.39069   0.42876   0.45720   0.46918   0.48643
 Alpha virt. eigenvalues --    0.48655   0.49656   0.52241   0.53131   0.55275
 Alpha virt. eigenvalues --    0.55425   0.57423   0.57859   0.61136   0.64199
 Alpha virt. eigenvalues --    0.66915   0.69424   0.73193   0.74637   0.78481
 Alpha virt. eigenvalues --    0.79211   0.83132   0.84534   0.85587   0.90094
 Alpha virt. eigenvalues --    0.97799   1.01618   1.08161   1.12653   1.30253
 Alpha virt. eigenvalues --    1.32935   2.07762   2.08385   2.12256   2.12691
 Alpha virt. eigenvalues --    2.19779   2.20866   2.22382   2.23704   2.26996
 Alpha virt. eigenvalues --    2.28747   2.47783   2.53942   2.55337   2.64638
 Alpha virt. eigenvalues --    2.68406   2.70298   2.72971   2.76390   2.83808
 Alpha virt. eigenvalues --    2.84959   2.93479   2.97645   3.03035   3.09072
 Alpha virt. eigenvalues --    3.15920   3.64909   3.70440   3.76083   3.86829
 Alpha virt. eigenvalues --    3.99203   4.14841   9.52694   9.56143  23.14447
 Alpha virt. eigenvalues --   23.25568  23.34454  23.44044  23.57935  25.36442
 Alpha virt. eigenvalues --   25.38233  25.47482  25.54814  25.90140  26.12109
 Alpha virt. eigenvalues --   35.35392  35.39887 215.47636 215.52305
          Condensed to atoms (all electrons):
               1          2          3          4          5          6
     1  C    5.229429   0.368579  -0.135895  -0.010224  -0.140679   0.362530
     2  N    0.368579   6.840792   0.456427  -0.088148  -0.032643  -0.103969
     3  C   -0.135895   0.456427   5.457340   0.118422  -0.086214  -0.044753
     4  C   -0.010224  -0.088148   0.118422   5.917282   0.366347  -0.043897
     5  C   -0.140679  -0.032643  -0.086214   0.366347   4.972746   0.473943
     6  N    0.362530  -0.103969  -0.044753  -0.043897   0.473943   6.761516
     7  H    0.005971  -0.000711   0.004744  -0.072153   0.392223  -0.033719
     8  Cl   0.257316  -0.116079   0.002152   0.000642   0.002643  -0.114081
     9  Cl   0.004408  -0.094797   0.308290  -0.177863   0.000748  -0.001172
    10  C    0.004921   0.006181  -0.046657   0.123278  -0.026435   0.007239
    11  H    0.000025  -0.000051  -0.011022  -0.039021   0.000729  -0.000172
    12  H    0.000025  -0.000051  -0.011022  -0.039021   0.000729  -0.000172
    13  H   -0.000063  -0.000242   0.008714  -0.048832  -0.000585   0.000220
               7          8          9         10         11         12
     1  C    0.005971   0.257316   0.004408   0.004921   0.000025   0.000025
     2  N   -0.000711  -0.116079  -0.094797   0.006181  -0.000051  -0.000051
     3  C    0.004744   0.002152   0.308290  -0.046657  -0.011022  -0.011022
     4  C   -0.072153   0.000642  -0.177863   0.123278  -0.039021  -0.039021
     5  C    0.392223   0.002643   0.000748  -0.026435   0.000729   0.000729
     6  N   -0.033719  -0.114081  -0.001172   0.007239  -0.000172  -0.000172
     7  H    0.496962  -0.000395  -0.000298  -0.001560   0.000014   0.000014
     8  Cl  -0.000395  16.903585  -0.000363   0.000107  -0.000004  -0.000004
     9  Cl  -0.000298  -0.000363  16.890661   0.003587  -0.001472  -0.001472
    10  C   -0.001560   0.000107   0.003587   5.367068   0.387229   0.387229
    11  H    0.000014  -0.000004  -0.001472   0.387229   0.489982  -0.025588
    12  H    0.000014  -0.000004  -0.001472   0.387229  -0.025588   0.489982
    13  H    0.004534  -0.000004   0.001102   0.378975  -0.026360  -0.026360
              13
     1  C   -0.000063
     2  N   -0.000242
     3  C    0.008714
     4  C   -0.048832
     5  C   -0.000585
     6  N    0.000220
     7  H    0.004534
     8  Cl  -0.000004
     9  Cl   0.001102
    10  C    0.378975
    11  H   -0.026360
    12  H   -0.026360
    13  H    0.510628
 Mulliken charges:
               1
     1  C    0.053658
     2  N   -0.235288
     3  C   -0.020525
     4  C   -0.006812
     5  C    0.076448
     6  N   -0.263514
     7  H    0.204376
     8  Cl   0.064485
     9  Cl   0.068641
    10  C   -0.591162
    11  H    0.225710
    12  H    0.225710
    13  H    0.198274
 Sum of Mulliken charges =   0.00000
 Mulliken charges with hydrogens summed into heavy atoms:
               1
     1  C    0.053658
     2  N   -0.235288
     3  C   -0.020525
     4  C   -0.006812
     5  C    0.280824
     6  N   -0.263514
     8  Cl   0.064485
     9  Cl   0.068641
    10  C    0.058532
 Electronic spatial extent (au):  <R**2>=           1814.1964
 Charge=              0.0000 electrons
 Dipole moment (field-independent basis, Debye):
    X=             -4.0571    Y=              2.0222    Z=              0.0000  Tot=              4.5331
 Quadrupole moment (field-independent basis, Debye-Ang):
   XX=            -62.7774   YY=            -72.0853   ZZ=            -66.4057
   XY=             -2.9279   XZ=              0.0000   YZ=              0.0000
 Traceless Quadrupole moment (field-independent basis, Debye-Ang):
   XX=              4.3121   YY=             -4.9958   ZZ=              0.6837
   XY=             -2.9279   XZ=              0.0000   YZ=              0.0000
 Octapole moment (field-independent basis, Debye-Ang**2):
  XXX=            -18.5408  YYY=             21.2094  ZZZ=              0.0000  XYY=              2.1738
  XXY=              1.6917  XXZ=              0.0000  XZZ=              2.5626  YZZ=              1.1830
  YYZ=              0.0000  XYZ=              0.0000
 Hexadecapole moment (field-independent basis, Debye-Ang**3):
 XXXX=           -803.4489 YYYY=          -1466.1233 ZZZZ=            -79.5904 XXXY=            187.0772
 XXXZ=              0.0000 YYYX=            169.4597 YYYZ=              0.0000 ZZZX=              0.0000
 ZZZY=              0.0000 XXYY=           -366.6040 XXZZ=           -159.8117 YYZZ=           -255.9225
 XXYZ=              0.0000 YYXZ=              0.0000 ZZXY=             61.7233
 N-N= 5.547204222427D+02 E-N=-3.999523438734D+03  KE= 1.219643600800D+03
 Symmetry A'   KE= 1.118177237985D+03
 Symmetry A"   KE= 1.014663628148D+02
 ******************************Gaussian NBO Version 3.1******************************
             N A T U R A L   A T O M I C   O R B I T A L   A N D
          N A T U R A L   B O N D   O R B I T A L   A N A L Y S I S
 ******************************Gaussian NBO Version 3.1******************************
       /RESON  / : Allow strongly delocalized NBO set

 Analyzing the SCF density

 Job title: Energy Calculation(GC)                                          

 Storage needed:     63817 in NPA ( 134217166 available)


 NATURAL POPULATIONS:  Natural atomic orbital occupancies 
                                                          
   NAO  Atom  No  lang   Type(AO)    Occupancy      Energy
 ----------------------------------------------------------
     1    C    1  S      Cor( 1S)     1.99900     -10.23766
     2    C    1  S      Val( 2S)     0.85525      -0.27675
     3    C    1  S      Ryd( 3S)     0.00165       0.52791
     4    C    1  S      Ryd( 4S)     0.00004      23.00390
     5    C    1  px     Val( 2p)     0.88726      -0.15328
     6    C    1  px     Ryd( 3p)     0.01289       0.79002
     7    C    1  px     Ryd( 4p)     0.00012       2.57433
     8    C    1  py     Val( 2p)     0.87903      -0.15087
     9    C    1  py     Ryd( 3p)     0.01323       0.79552
    10    C    1  py     Ryd( 4p)     0.00014       2.58195
    11    C    1  pz     Val( 2p)     0.98097      -0.20797
    12    C    1  pz     Ryd( 3p)     0.00193       0.54272
    13    C    1  pz     Ryd( 4p)     0.00007       2.43883

    14    N    2  S      Cor( 1S)     1.99920     -14.19178
    15    N    2  S      Val( 2S)     1.40005      -0.58477
    16    N    2  S      Ryd( 3S)     0.00163       1.55696
    17    N    2  S      Ryd( 4S)     0.00000      35.15876
    18    N    2  px     Val( 2p)     1.64546      -0.28188
    19    N    2  px     Ryd( 3p)     0.00678       0.76934
    20    N    2  px     Ryd( 4p)     0.00011       3.72993
    21    N    2  py     Val( 2p)     1.23368      -0.24408
    22    N    2  py     Ryd( 3p)     0.00332       1.06450
    23    N    2  py     Ryd( 4p)     0.00017       3.97951
    24    N    2  pz     Val( 2p)     1.17226      -0.23491
    25    N    2  pz     Ryd( 3p)     0.00114       0.70816
    26    N    2  pz     Ryd( 4p)     0.00002       3.67038

    27    C    3  S      Cor( 1S)     1.99857     -10.20792
    28    C    3  S      Val( 2S)     0.88635      -0.26771
    29    C    3  S      Ryd( 3S)     0.00202       0.65386
    30    C    3  S      Ryd( 4S)     0.00003      22.98397
    31    C    3  px     Val( 2p)     1.00085      -0.13544
    32    C    3  px     Ryd( 3p)     0.01263       0.71401
    33    C    3  px     Ryd( 4p)     0.00020       2.70742
    34    C    3  py     Val( 2p)     0.89098      -0.20843
    35    C    3  py     Ryd( 3p)     0.00838       0.86256
    36    C    3  py     Ryd( 4p)     0.00018       2.63379
    37    C    3  pz     Val( 2p)     0.99504      -0.20673
    38    C    3  pz     Ryd( 3p)     0.00177       0.52931
    39    C    3  pz     Ryd( 4p)     0.00002       2.49751

    40    C    4  S      Cor( 1S)     1.99890     -10.11736
    41    C    4  S      Val( 2S)     0.90772      -0.21461
    42    C    4  S      Ryd( 3S)     0.00204       0.92393
    43    C    4  S      Ryd( 4S)     0.00001      23.03436
    44    C    4  px     Val( 2p)     1.08749      -0.13851
    45    C    4  px     Ryd( 3p)     0.00327       1.09432
    46    C    4  px     Ryd( 4p)     0.00020       2.81070
    47    C    4  py     Val( 2p)     1.08810      -0.13026
    48    C    4  py     Ryd( 3p)     0.00442       1.02917
    49    C    4  py     Ryd( 4p)     0.00018       2.80473
    50    C    4  pz     Val( 2p)     0.99684      -0.16423
    51    C    4  pz     Ryd( 3p)     0.00130       0.57794
    52    C    4  pz     Ryd( 4p)     0.00001       2.56346

    53    C    5  S      Cor( 1S)     1.99905     -10.13907
    54    C    5  S      Val( 2S)     0.92467      -0.22634
    55    C    5  S      Ryd( 3S)     0.00261       0.68963
    56    C    5  S      Ryd( 4S)     0.00003      23.00054
    57    C    5  px     Val( 2p)     1.09460      -0.12165
    58    C    5  px     Ryd( 3p)     0.00738       1.03509
    59    C    5  px     Ryd( 4p)     0.00010       2.62940
    60    C    5  py     Val( 2p)     0.98154      -0.09326
    61    C    5  py     Ryd( 3p)     0.00931       0.76295
    62    C    5  py     Ryd( 4p)     0.00017       2.53352
    63    C    5  pz     Val( 2p)     0.90204      -0.17128
    64    C    5  pz     Ryd( 3p)     0.00060       0.49156
    65    C    5  pz     Ryd( 4p)     0.00002       2.49461

    66    N    6  S      Cor( 1S)     1.99934     -14.18756
    67    N    6  S      Val( 2S)     1.40565      -0.58148
    68    N    6  S      Ryd( 3S)     0.00111       1.57538
    69    N    6  S      Ryd( 4S)     0.00000      35.14180
    70    N    6  px     Val( 2p)     1.22781      -0.22967
    71    N    6  px     Ryd( 3p)     0.00343       1.03691
    72    N    6  px     Ryd( 4p)     0.00014       3.96360
    73    N    6  py     Val( 2p)     1.64868      -0.26911
    74    N    6  py     Ryd( 3p)     0.00611       0.78102
    75    N    6  py     Ryd( 4p)     0.00009       3.72181
    76    N    6  pz     Val( 2p)     1.16278      -0.22859
    77    N    6  pz     Ryd( 3p)     0.00075       0.71911
    78    N    6  pz     Ryd( 4p)     0.00002       3.65935

    79    H    7  S      Val( 1S)     0.78322      -0.01011
    80    H    7  S      Ryd( 2S)     0.00134       0.59260
    81    H    7  S      Ryd( 3S)     0.00033       1.81938

    82   Cl    8  S      Cor( 1S)     2.00000    -100.27254
    83   Cl    8  S      Cor( 2S)     1.99978     -10.46275
    84   Cl    8  S      Val( 3S)     1.85914      -1.03073
    85   Cl    8  S      Ryd( 4S)     0.00146       0.97401
    86   Cl    8  S      Ryd( 5S)     0.00000      17.28475
    87   Cl    8  S      Ryd( 6S)     0.00000     207.62393
    88   Cl    8  px     Cor( 2p)     1.99996      -7.24258
    89   Cl    8  px     Val( 3p)     1.59932      -0.31151
    90   Cl    8  px     Ryd( 4p)     0.00200       0.33433
    91   Cl    8  px     Ryd( 5p)     0.00006       2.47572
    92   Cl    8  px     Ryd( 6p)     0.00000      25.34905
    93   Cl    8  py     Cor( 2p)     1.99996      -7.24271
    94   Cl    8  py     Val( 3p)     1.59238      -0.31152
    95   Cl    8  py     Ryd( 4p)     0.00202       0.33438
    96   Cl    8  py     Ryd( 5p)     0.00006       2.47385
    97   Cl    8  py     Ryd( 6p)     0.00000      25.34935
    98   Cl    8  pz     Cor( 2p)     1.99999      -7.23820
    99   Cl    8  pz     Val( 3p)     1.89820      -0.33131
   100   Cl    8  pz     Ryd( 4p)     0.00236       0.35572
   101   Cl    8  pz     Ryd( 5p)     0.00000       2.50433
   102   Cl    8  pz     Ryd( 6p)     0.00000      24.91075

   103   Cl    9  S      Cor( 1S)     2.00000    -100.29412
   104   Cl    9  S      Cor( 2S)     1.99978     -10.45940
   105   Cl    9  S      Val( 3S)     1.85362      -1.05143
   106   Cl    9  S      Ryd( 4S)     0.00103       1.03853
   107   Cl    9  S      Ryd( 5S)     0.00000      17.62812
   108   Cl    9  S      Ryd( 6S)     0.00000     207.31412
   109   Cl    9  px     Cor( 2p)     1.99999      -7.25285
   110   Cl    9  px     Val( 3p)     1.89200      -0.34259
   111   Cl    9  px     Ryd( 4p)     0.00142       0.37362
   112   Cl    9  px     Ryd( 5p)     0.00001       2.29289
   113   Cl    9  px     Ryd( 6p)     0.00000      25.41263
   114   Cl    9  py     Cor( 2p)     1.99993      -7.26134
   115   Cl    9  py     Val( 3p)     1.31199      -0.31141
   116   Cl    9  py     Ryd( 4p)     0.00262       0.29438
   117   Cl    9  py     Ryd( 5p)     0.00007       2.32469
   118   Cl    9  py     Ryd( 6p)     0.00000      25.85857
   119   Cl    9  pz     Cor( 2p)     1.99999      -7.25273
   120   Cl    9  pz     Val( 3p)     1.89995      -0.34666
   121   Cl    9  pz     Ryd( 4p)     0.00257       0.34670
   122   Cl    9  pz     Ryd( 5p)     0.00000       2.27442
   123   Cl    9  pz     Ryd( 6p)     0.00000      25.14120

   124    C   10  S      Cor( 1S)     1.99922     -10.05859
   125    C   10  S      Val( 2S)     1.07173      -0.26945
   126    C   10  S      Ryd( 3S)     0.00059       0.94849
   127    C   10  S      Ryd( 4S)     0.00001      23.29920
   128    C   10  px     Val( 2p)     1.13844      -0.12903
   129    C   10  px     Ryd( 3p)     0.00255       0.53367
   130    C   10  px     Ryd( 4p)     0.00009       2.78099
   131    C   10  py     Val( 2p)     1.14204      -0.12858
   132    C   10  py     Ryd( 3p)     0.00217       0.50725
   133    C   10  py     Ryd( 4p)     0.00009       2.71831
   134    C   10  pz     Val( 2p)     1.22418      -0.13110
   135    C   10  pz     Ryd( 3p)     0.00102       0.47236
   136    C   10  pz     Ryd( 4p)     0.00005       2.80729

   137    H   11  S      Val( 1S)     0.77749       0.01699
   138    H   11  S      Ryd( 2S)     0.00127       0.60881
   139    H   11  S      Ryd( 3S)     0.00013       1.84618

   140    H   12  S      Val( 1S)     0.77749       0.01699
   141    H   12  S      Ryd( 2S)     0.00127       0.60881
   142    H   12  S      Ryd( 3S)     0.00013       1.84618

   143    H   13  S      Val( 1S)     0.79077       0.01094
   144    H   13  S      Ryd( 2S)     0.00156       0.51436
   145    H   13  S      Ryd( 3S)     0.00017       1.92724

 WARNING:  1 low occupancy (<1.9990e) core orbital  found on  C    3
           1 low occupancy (<1.9990e) core orbital  found on  C    4


 Summary of Natural Population Analysis:                  
                                                          
                                       Natural Population 
                Natural  -----------------------------------------------
    Atom  No    Charge         Core      Valence    Rydberg      Total
 -----------------------------------------------------------------------
      C    1    0.36841      1.99900     3.60251    0.03008     5.63159
      N    2   -0.46383      1.99920     5.45145    0.01318     7.46383
      C    3    0.20299      1.99857     3.77322    0.02522     5.79701
      C    4   -0.09049      1.99890     4.08016    0.01143     6.09049
      C    5    0.07789      1.99905     3.90285    0.02021     5.92211
      N    6   -0.45591      1.99934     5.44491    0.01165     7.45591
      H    7    0.21511      0.00000     0.78322    0.00167     0.78489
     Cl    8    0.04329      9.99969     6.94904    0.00797    16.95671
     Cl    9    0.03502      9.99970     6.95755    0.00773    16.96498
      C   10   -0.58219      1.99922     4.57640    0.00656     6.58219
      H   11    0.22110      0.00000     0.77749    0.00140     0.77890
      H   12    0.22110      0.00000     0.77749    0.00140     0.77890
      H   13    0.20750      0.00000     0.79077    0.00173     0.79250
 =======================================================================
   * Total *    0.00000     33.99269    47.86708    0.14024    82.00000

                                 Natural Population      
 --------------------------------------------------------
   Core                      33.99269 ( 99.9785% of  34)
   Valence                   47.86708 ( 99.7231% of  48)
   Natural Minimal Basis     81.85976 ( 99.8290% of  82)
   Natural Rydberg Basis      0.14024 (  0.1710% of  82)
 --------------------------------------------------------

    Atom  No          Natural Electron Configuration
 ----------------------------------------------------------------------------
      C    1      [core]2S( 0.86)2p( 2.75)3p( 0.03)
      N    2      [core]2S( 1.40)2p( 4.05)3p( 0.01)
      C    3      [core]2S( 0.89)2p( 2.89)3p( 0.02)
      C    4      [core]2S( 0.91)2p( 3.17)3p( 0.01)
      C    5      [core]2S( 0.92)2p( 2.98)3p( 0.02)
      N    6      [core]2S( 1.41)2p( 4.04)3p( 0.01)
      H    7            1S( 0.78)
     Cl    8      [core]3S( 1.86)3p( 5.09)4p( 0.01)
     Cl    9      [core]3S( 1.85)3p( 5.10)4p( 0.01)
      C   10      [core]2S( 1.07)2p( 3.50)3p( 0.01)
      H   11            1S( 0.78)
      H   12            1S( 0.78)
      H   13            1S( 0.79)


 NBO analysis skipped by request.
 Calling FoFJK, ICntrl=      2127 FMM=F ISym2X=1 I1Cent= 0 IOpClX= 0 NMat=1 NMatS=1 NMatT=0.
 ***** Axes restored to original set *****
 -------------------------------------------------------------------
 Center     Atomic                   Forces (Hartrees/Bohr)
 Number     Number              X              Y              Z
 -------------------------------------------------------------------
      1        6           0.026605699    0.010746720    0.000000000
      2        7          -0.003069481    0.020657177    0.000000000
      3        6          -0.031888248    0.020162231    0.000000000
      4        6           0.020129112    0.005040779    0.000000000
      5        6           0.005083622    0.000988363    0.000000000
      6        7          -0.001567658   -0.020961314    0.000000000
      7        1          -0.001526192   -0.015467631    0.000000000
      8       17          -0.013370599   -0.005242860    0.000000000
      9       17           0.013861634   -0.012181001    0.000000000
     10        6          -0.034237075   -0.008704966    0.000000000
     11        1           0.009109883   -0.003831356    0.009791855
     12        1           0.009109883   -0.003831356   -0.009791855
     13        1           0.001759420    0.012625214    0.000000000
 -------------------------------------------------------------------
 Cartesian Forces:  Max     0.034237075 RMS     0.012575944

 GradGradGradGradGradGradGradGradGradGradGradGradGradGradGradGradGradGrad
 Berny optimization.
 FormGI is forming the generalized inverse of G from B-inverse, IUseBI=4.
 Internal  Forces:  Max     0.022462684 RMS     0.007567934
 Search for a local minimum.
 Step number   1 out of a maximum of   65
 All quantities printed in internal units (Hartrees-Bohrs-Radians)
 Mixed Optimization -- RFO/linear search
 Second derivative matrix not updated -- first step.
 ITU=  0
     Eigenvalues ---    0.00237   0.01240   0.02004   0.02081   0.02107
     Eigenvalues ---    0.02206   0.02236   0.02253   0.07243   0.07243
     Eigenvalues ---    0.16000   0.16000   0.16000   0.16000   0.23297
     Eigenvalues ---    0.25000   0.25000   0.25000   0.25000   0.25000
     Eigenvalues ---    0.28519   0.29539   0.29539   0.33174   0.37230
     Eigenvalues ---    0.37230   0.37230   0.42056   0.43484   0.50635
     Eigenvalues ---    0.51072   0.53462   0.55127
 RFO step:  Lambda=-8.52212398D-03 EMin= 2.36824203D-03
 Linear search not attempted -- first point.
 Iteration  1 RMS(Cart)=  0.02168174 RMS(Int)=  0.00020080
 Iteration  2 RMS(Cart)=  0.00023230 RMS(Int)=  0.00004459
 Iteration  3 RMS(Cart)=  0.00000005 RMS(Int)=  0.00004459
 ClnCor:  largest displacement from symmetrization is 3.12D-10 for atom    12.
 Variable       Old X    -DE/DX   Delta X   Delta X   Delta X     New X
                                 (Linear)    (Quad)   (Total)
    R1        2.57212  -0.02106   0.00000  -0.04076  -0.04078   2.53133
    R2        2.57219  -0.02246   0.00000  -0.04305  -0.04308   2.52911
    R3        3.32592   0.01435   0.00000   0.04723   0.04723   3.37314
    R4        2.55020  -0.01034   0.00000  -0.01882  -0.01881   2.53139
    R5        2.66141  -0.00953   0.00000  -0.01992  -0.01988   2.64153
    R6        3.32592   0.01844   0.00000   0.06067   0.06067   3.38659
    R7        2.66137  -0.01001   0.00000  -0.02049  -0.02047   2.64090
    R8        2.91018  -0.01469   0.00000  -0.05002  -0.05002   2.86015
    R9        2.55019   0.00053   0.00000   0.00133   0.00131   2.55150
   R10        2.08747  -0.01553   0.00000  -0.04565  -0.04565   2.04182
   R11        2.02200   0.01356   0.00000   0.03562   0.03562   2.05762
   R12        2.02200   0.01356   0.00000   0.03562   0.03562   2.05762
   R13        2.02201   0.01263   0.00000   0.03316   0.03316   2.05517
    A1        2.21412  -0.00285   0.00000  -0.01592  -0.01598   2.19815
    A2        2.03452   0.00057   0.00000   0.00464   0.00466   2.03918
    A3        2.03454   0.00229   0.00000   0.01129   0.01132   2.04586
    A4        2.02153   0.00529   0.00000   0.01471   0.01471   2.03624
    A5        2.13493   0.00430   0.00000   0.01789   0.01795   2.15288
    A6        2.02988  -0.00092   0.00000  -0.00419  -0.00422   2.02566
    A7        2.11838  -0.00338   0.00000  -0.01370  -0.01373   2.10465
    A8        2.03932  -0.01199   0.00000  -0.04115  -0.04109   1.99824
    A9        2.12190   0.00849   0.00000   0.03024   0.03021   2.15211
   A10        2.12196   0.00349   0.00000   0.01091   0.01088   2.13284
   A11        2.13495   0.00426   0.00000   0.02276   0.02277   2.15772
   A12        2.11838  -0.00271   0.00000  -0.01485  -0.01485   2.10353
   A13        2.02986  -0.00155   0.00000  -0.00792  -0.00792   2.02194
   A14        2.02151   0.00099   0.00000   0.00172   0.00164   2.02315
   A15        1.91064   0.00319   0.00000   0.01845   0.01833   1.92896
   A16        1.91064   0.00319   0.00000   0.01845   0.01833   1.92896
   A17        1.91063   0.00139   0.00000   0.00919   0.00908   1.91971
   A18        1.91062  -0.00355   0.00000  -0.02291  -0.02304   1.88759
   A19        1.91064  -0.00211   0.00000  -0.01159  -0.01170   1.89894
   A20        1.91064  -0.00211   0.00000  -0.01159  -0.01170   1.89894
    D1        0.00000   0.00000   0.00000   0.00000   0.00000   0.00000
    D2        3.14159   0.00000   0.00000   0.00000   0.00000   3.14159
    D3        0.00000   0.00000   0.00000   0.00000   0.00000   0.00000
    D4        3.14159   0.00000   0.00000   0.00000   0.00000   3.14159
    D5        0.00000   0.00000   0.00000   0.00000   0.00000   0.00000
    D6        3.14159   0.00000   0.00000   0.00000   0.00000   3.14159
    D7        0.00000   0.00000   0.00000   0.00000   0.00000   0.00000
    D8        3.14159   0.00000   0.00000   0.00000   0.00000   3.14159
    D9        3.14159   0.00000   0.00000   0.00000   0.00000   3.14159
   D10        0.00000   0.00000   0.00000   0.00000   0.00000   0.00000
   D11        0.00000   0.00000   0.00000   0.00000   0.00000   0.00000
   D12        3.14159   0.00000   0.00000   0.00000   0.00000   3.14159
   D13        3.14159   0.00000   0.00000   0.00000   0.00000   3.14159
   D14        0.00000   0.00000   0.00000   0.00000   0.00000   0.00000
   D15       -1.04719   0.00022   0.00000   0.00273   0.00272  -1.04447
   D16        1.04719  -0.00022   0.00000  -0.00273  -0.00272   1.04447
   D17        3.14159   0.00000   0.00000   0.00000   0.00000   3.14159
   D18        2.09440   0.00022   0.00000   0.00273   0.00272   2.09712
   D19       -2.09440  -0.00022   0.00000  -0.00273  -0.00272  -2.09712
   D20        0.00000   0.00000   0.00000   0.00000   0.00000   0.00000
   D21        0.00000   0.00000   0.00000   0.00000   0.00000   0.00000
   D22        3.14159   0.00000   0.00000   0.00000   0.00000   3.14159
         Item               Value     Threshold  Converged?
 Maximum Force            0.022463     0.000450     NO 
 RMS     Force            0.007568     0.000300     NO 
 Maximum Displacement     0.086378     0.001800     NO 
 RMS     Displacement     0.021671     0.001200     NO 
 Predicted change in Energy=-4.367558D-03
 GradGradGradGradGradGradGradGradGradGradGradGradGradGradGradGradGradGrad

                          Input orientation:                          
 ---------------------------------------------------------------------
 Center     Atomic      Atomic             Coordinates (Angstroms)
 Number     Number       Type             X           Y           Z
 ---------------------------------------------------------------------
      1          6           0       -1.410968    0.093931    0.000000
      2          7           0       -0.440979   -0.829890    0.000000
      3          6           0        0.819949   -0.377707    0.000000
      4          6           0        1.149171    0.980809    0.000000
      5          6           0        0.049619    1.843367    0.000000
      6          7           0       -1.232596    1.420337    0.000000
      7          1           0        0.192329    2.914386    0.000000
      8         17           0       -3.092950   -0.503672    0.000000
      9         17           0        2.104514   -1.627320    0.000000
     10          6           0        2.574252    1.490626    0.000000
     11          1           0        3.106203    1.136854    0.881735
     12          1           0        3.106203    1.136854   -0.881735
     13          1           0        2.580076    2.578160    0.000000
 ---------------------------------------------------------------------
                    Distance matrix (angstroms):
                    1          2          3          4          5
     1  C    0.000000
     2  N    1.339524   0.000000
     3  C    2.280226   1.339555   0.000000
     4  C    2.709403   2.409815   1.397839   0.000000
     5  C    2.279000   2.717902   2.350868   1.397506   0.000000
     6  N    1.338346   2.385410   2.728718   2.421983   1.350196
     7  H    3.244307   3.797458   3.351386   2.157376   1.080485
     8  Cl   1.784991   2.671959   3.914925   4.494360   3.922287
     9  Cl   3.914246   2.667476   1.792105   2.777592   4.033394
    10  C    4.222882   3.804788   2.562860   1.513528   2.549156
    11  H    4.719108   4.150668   2.880679   2.152158   3.258730
    12  H    4.719108   4.150668   2.880679   2.152158   3.258730
    13  H    4.701045   4.554292   3.440232   2.144532   2.634982
                    6          7          8          9         10
     6  N    0.000000
     7  H    2.064605   0.000000
     8  Cl   2.676327   4.740905   0.000000
     9  Cl   4.519350   4.927834   5.317539   0.000000
    10  C    3.807497   2.775004   6.007861   3.153133   0.000000
    11  H    4.436553   3.525300   6.472888   3.069446   1.088845
    12  H    4.436553   3.525300   6.472888   3.069446   1.088845
    13  H    3.984597   2.411303   6.456075   4.232283   1.087549
                   11         12         13
    11  H    0.000000
    12  H    1.763470   0.000000
    13  H    1.769641   1.769641   0.000000
 Stoichiometry    C5H4Cl2N2
 Framework group  CS[SG(C5H2Cl2N2),X(H2)]
 Deg. of freedom    22
 Full point group                 CS      NOp   2
 Largest Abelian subgroup         CS      NOp   2
 Largest concise Abelian subgroup CS      NOp   2
                         Standard orientation:                         
 ---------------------------------------------------------------------
 Center     Atomic      Atomic             Coordinates (Angstroms)
 Number     Number       Type             X           Y           Z
 ---------------------------------------------------------------------
      1          6           0        0.495656   -1.318765    0.000000
      2          7           0        0.934231   -0.053073    0.000000
      3          6           0        0.000000    0.906939    0.000000
      4          6           0       -1.372761    0.643347    0.000000
      5          6           0       -1.701873   -0.714853    0.000000
      6          7           0       -0.785347   -1.706323    0.000000
      7          1           0       -2.735684   -1.028990    0.000000
      8         17           0        1.736775   -2.601658    0.000000
      9         17           0        0.604640    2.593963    0.000000
     10          6           0       -2.427492    1.728847    0.000000
     11          1           0       -2.326079    2.359595    0.881735
     12          1           0       -2.326079    2.359595   -0.881735
     13          1           0       -3.419584    1.283295    0.000000
 ---------------------------------------------------------------------
 Rotational constants (GHZ):      2.1197832      0.7561408      0.5592685
 Standard basis: 6-311G (5D, 7F)
 There are   111 symmetry adapted cartesian basis functions of A'  symmetry.
 There are    34 symmetry adapted cartesian basis functions of A"  symmetry.
 There are   111 symmetry adapted basis functions of A'  symmetry.
 There are    34 symmetry adapted basis functions of A"  symmetry.
   145 basis functions,   288 primitive gaussians,   145 cartesian basis functions
    41 alpha electrons       41 beta electrons
       nuclear repulsion energy       554.8898933190 Hartrees.
 NAtoms=   13 NActive=   13 NUniq=   12 SFac= 1.17D+00 NAtFMM=   60 NAOKFM=F Big=F
 Integral buffers will be    262144 words long.
 Raffenetti 2 integral format.
 Two-electron integral symmetry is turned on.
 One-electron integrals computed using PRISM.
 NBasis=   145 RedAO= T EigKep=  1.22D-03  NBF=   111    34
 NBsUse=   145 1.00D-06 EigRej= -1.00D+00 NBFU=   111    34
 Initial guess from the checkpoint file:  "D:\mindmap\gaussian\calculate\opt_freq\QM1\6-311g.chk"
 B after Tr=     0.000000    0.000000    0.000000
         Rot=    0.999952    0.000000    0.000000    0.009780 Ang=   1.12 deg.
 Initial guess orbital symmetries:
       Occupied  (A') (A') (A') (A') (A') (A') (A') (A') (A') (A')
                 (A') (A') (A") (A') (A') (A") (A') (A') (A') (A')
                 (A') (A') (A') (A') (A') (A') (A') (A") (A') (A')
                 (A") (A') (A') (A") (A") (A') (A') (A') (A") (A")
                 (A')
       Virtual   (A') (A') (A') (A') (A') (A') (A') (A') (A') (A')
                 (A') (A') (A') (A') (A') (A') (A') (A') (A') (A')
                 (A') (A') (A') (A') (A') (A') (A') (A') (A') (A')
                 (A') (A') (A') (A') (A') (A') (A') (A') (A') (A')
                 (A') (A') (A') (A') (A') (A') (A') (A') (A') (A')
                 (A') (A') (A') (A') (A') (A') (A') (A') (A') (A')
                 (A') (A') (A') (A') (A') (A') (A') (A') (A') (A')
                 (A') (A') (A') (A') (A') (A') (A') (A') (A") (A")
                 (A") (A") (A") (A") (A") (A") (A") (A") (A") (A")
                 (A") (A") (A") (A") (A") (A") (A") (A") (A") (A")
                 (A") (A") (A") (A")
 ExpMin= 1.03D-01 ExpMax= 1.06D+05 ExpMxC= 3.62D+03 IAcc=2 IRadAn=         4 AccDes= 0.00D+00
 Harris functional with IExCor=  402 and IRadAn=       4 diagonalized for initial guess.
 HarFok:  IExCor=  402 AccDes= 0.00D+00 IRadAn=         4 IDoV= 1 UseB2=F ITyADJ=14
 ICtDFT=  3500011 ScaDFX=  1.000000  1.000000  1.000000  1.000000
 FoFCou: FMM=F IPFlag=           0 FMFlag=      100000 FMFlg1=           0
         NFxFlg=           0 DoJE=T BraDBF=F KetDBF=T FulRan=T
         wScrn=  0.000000 ICntrl=     500 IOpCl=  0 I1Cent=   200000004 NGrid=           0
         NMat0=    1 NMatS0=      1 NMatT0=    0 NMatD0=    1 NMtDS0=    0 NMtDT0=    0
 Petite list used in FoFCou.
 Keep R1 ints in memory in symmetry-blocked form, NReq=86443437.
 Requested convergence on RMS density matrix=1.00D-08 within 128 cycles.
 Requested convergence on MAX density matrix=1.00D-06.
 Requested convergence on             energy=1.00D-06.
 No special actions if energy rises.
 Integral accuracy reduced to 1.0D-05 until final iterations.
 Initial convergence to 1.0D-05 achieved.  Increase integral accuracy.
 SCF Done:  E(RB3LYP) =  -1222.81580837     A.U. after   13 cycles
            NFock= 13  Conv=0.61D-08     -V/T= 2.0025
 Calling FoFJK, ICntrl=      2127 FMM=F ISym2X=1 I1Cent= 0 IOpClX= 0 NMat=1 NMatS=1 NMatT=0.
 ***** Axes restored to original set *****
 -------------------------------------------------------------------
 Center     Atomic                   Forces (Hartrees/Bohr)
 Number     Number              X              Y              Z
 -------------------------------------------------------------------
      1        6           0.008742218    0.004120916    0.000000000
      2        7           0.004796523    0.005345622    0.000000000
      3        6          -0.016380970    0.000827280    0.000000000
      4        6           0.009706817    0.000604976    0.000000000
      5        6          -0.001503386    0.002666199    0.000000000
      6        7          -0.001042818   -0.005652273    0.000000000
      7        1          -0.000153877    0.000220542    0.000000000
      8       17          -0.005164603   -0.001951588    0.000000000
      9       17           0.006158476   -0.005166715    0.000000000
     10        6          -0.010255049   -0.001871358    0.000000000
     11        1           0.001910837   -0.000036702    0.000323254
     12        1           0.001910837   -0.000036702   -0.000323254
     13        1           0.001274995    0.000929803    0.000000000
 -------------------------------------------------------------------
 Cartesian Forces:  Max     0.016380970 RMS     0.004428498

 GradGradGradGradGradGradGradGradGradGradGradGradGradGradGradGradGradGrad
 Berny optimization.
 Using GEDIIS/GDIIS optimizer.
 FormGI is forming the generalized inverse of G from B-inverse, IUseBI=4.
 Internal  Forces:  Max     0.008016022 RMS     0.002190574
 Search for a local minimum.
 Step number   2 out of a maximum of   65
 All quantities printed in internal units (Hartrees-Bohrs-Radians)
 Mixed Optimization -- RFO/linear search
 Update second derivatives using D2CorX and points    1    2
 DE= -5.16D-03 DEPred=-4.37D-03 R= 1.18D+00
 TightC=F SS=  1.41D+00  RLast= 1.58D-01 DXNew= 5.0454D-01 4.7514D-01
 Trust test= 1.18D+00 RLast= 1.58D-01 DXMaxT set to 4.75D-01
 ITU=  1  0
 Use linear search instead of GDIIS.
     Eigenvalues ---    0.00237   0.01214   0.02005   0.02081   0.02107
     Eigenvalues ---    0.02206   0.02238   0.02255   0.07042   0.07081
     Eigenvalues ---    0.15216   0.16000   0.16000   0.16014   0.22447
     Eigenvalues ---    0.23697   0.25000   0.25000   0.25000   0.25187
     Eigenvalues ---    0.25815   0.28811   0.29545   0.33845   0.37226
     Eigenvalues ---    0.37230   0.37562   0.43285   0.43412   0.48756
     Eigenvalues ---    0.51537   0.53958   0.55762
 RFO step:  Lambda=-6.19863636D-04 EMin= 2.36824203D-03
 Quartic linear search produced a step of  0.25779.
 Iteration  1 RMS(Cart)=  0.00651770 RMS(Int)=  0.00005203
 Iteration  2 RMS(Cart)=  0.00004411 RMS(Int)=  0.00003401
 Iteration  3 RMS(Cart)=  0.00000000 RMS(Int)=  0.00003401
 ClnCor:  largest displacement from symmetrization is 3.46D-09 for atom    12.
 Variable       Old X    -DE/DX   Delta X   Delta X   Delta X     New X
                                 (Linear)    (Quad)   (Total)
    R1        2.53133  -0.00348  -0.01051  -0.00153  -0.01205   2.51929
    R2        2.52911  -0.00459  -0.01111  -0.00316  -0.01428   2.51483
    R3        3.37314   0.00552   0.01217   0.01418   0.02636   3.39950
    R4        2.53139  -0.00798  -0.00485  -0.01518  -0.02002   2.51137
    R5        2.64153   0.00195  -0.00512   0.00980   0.00468   2.64622
    R6        3.38659   0.00802   0.01564   0.02215   0.03779   3.42438
    R7        2.64090   0.00243  -0.00528   0.01207   0.00679   2.64770
    R8        2.86015  -0.00520  -0.01290  -0.01304  -0.02593   2.83422
    R9        2.55150   0.00042   0.00034   0.00132   0.00165   2.55315
   R10        2.04182   0.00020  -0.01177   0.00966  -0.00211   2.03971
   R11        2.05762   0.00121   0.00918  -0.00283   0.00635   2.06397
   R12        2.05762   0.00121   0.00918  -0.00283   0.00635   2.06397
   R13        2.05517   0.00093   0.00855  -0.00328   0.00527   2.06044
    A1        2.19815   0.00098  -0.00412   0.00550   0.00137   2.19951
    A2        2.03918  -0.00067   0.00120  -0.00298  -0.00177   2.03741
    A3        2.04586  -0.00031   0.00292  -0.00253   0.00040   2.04626
    A4        2.03624   0.00136   0.00379  -0.00087   0.00292   2.03916
    A5        2.15288   0.00098   0.00463   0.00115   0.00580   2.15868
    A6        2.02566   0.00051  -0.00109   0.00347   0.00237   2.02803
    A7        2.10465  -0.00148  -0.00354  -0.00462  -0.00817   2.09647
    A8        1.99824  -0.00197  -0.01059   0.00165  -0.00892   1.98932
    A9        2.15211   0.00202   0.00779   0.00244   0.01021   2.16232
   A10        2.13284  -0.00004   0.00280  -0.00409  -0.00129   2.13155
   A11        2.15772  -0.00170   0.00587  -0.01005  -0.00418   2.15354
   A12        2.10353   0.00103  -0.00383   0.00717   0.00334   2.10687
   A13        2.02194   0.00067  -0.00204   0.00288   0.00084   2.02278
   A14        2.02315   0.00036   0.00042   0.00262   0.00302   2.02616
   A15        1.92896   0.00143   0.00472   0.00681   0.01144   1.94040
   A16        1.92896   0.00143   0.00472   0.00681   0.01144   1.94040
   A17        1.91971   0.00132   0.00234   0.00968   0.01190   1.93161
   A18        1.88759  -0.00179  -0.00594  -0.01162  -0.01763   1.86996
   A19        1.89894  -0.00125  -0.00302  -0.00621  -0.00933   1.88961
   A20        1.89894  -0.00125  -0.00302  -0.00621  -0.00933   1.88961
    D1        0.00000   0.00000   0.00000   0.00000   0.00000   0.00000
    D2        3.14159   0.00000   0.00000   0.00000   0.00000   3.14159
    D3        0.00000   0.00000   0.00000   0.00000   0.00000   0.00000
    D4        3.14159   0.00000   0.00000   0.00000   0.00000   3.14159
    D5        0.00000   0.00000   0.00000   0.00000   0.00000   0.00000
    D6        3.14159   0.00000   0.00000   0.00000   0.00000   3.14159
    D7        0.00000   0.00000   0.00000   0.00000   0.00000   0.00000
    D8        3.14159   0.00000   0.00000   0.00000   0.00000   3.14159
    D9        3.14159   0.00000   0.00000   0.00000   0.00000   3.14159
   D10        0.00000   0.00000   0.00000   0.00000   0.00000   0.00000
   D11        0.00000   0.00000   0.00000   0.00000   0.00000   0.00000
   D12        3.14159   0.00000   0.00000   0.00000   0.00000   3.14159
   D13        3.14159   0.00000   0.00000   0.00000   0.00000   3.14159
   D14        0.00000   0.00000   0.00000   0.00000   0.00000   0.00000
   D15       -1.04447   0.00020   0.00070   0.00286   0.00358  -1.04089
   D16        1.04447  -0.00020  -0.00070  -0.00286  -0.00358   1.04089
   D17        3.14159   0.00000   0.00000   0.00000   0.00000   3.14159
   D18        2.09712   0.00020   0.00070   0.00286   0.00358   2.10070
   D19       -2.09712  -0.00020  -0.00070  -0.00286  -0.00358  -2.10070
   D20        0.00000   0.00000   0.00000   0.00000   0.00000   0.00000
   D21        0.00000   0.00000   0.00000   0.00000   0.00000   0.00000
   D22        3.14159   0.00000   0.00000   0.00000   0.00000   3.14159
         Item               Value     Threshold  Converged?
 Maximum Force            0.008016     0.000450     NO 
 RMS     Force            0.002191     0.000300     NO 
 Maximum Displacement     0.024794     0.001800     NO 
 RMS     Displacement     0.006517     0.001200     NO 
 Predicted change in Energy=-5.453704D-04
 GradGradGradGradGradGradGradGradGradGradGradGradGradGradGradGradGradGrad

                          Input orientation:                          
 ---------------------------------------------------------------------
 Center     Atomic      Atomic             Coordinates (Angstroms)
 Number     Number       Type             X           Y           Z
 ---------------------------------------------------------------------
      1          6           0       -1.405835    0.097504    0.000000
      2          7           0       -0.440255   -0.821704    0.000000
      3          6           0        0.811905   -0.376468    0.000000
      4          6           0        1.153259    0.981607    0.000000
      5          6           0        0.050509    1.845915    0.000000
      6          7           0       -1.230572    1.416703    0.000000
      7          1           0        0.189040    2.916356    0.000000
      8         17           0       -3.099756   -0.508146    0.000000
      9         17           0        2.110399   -1.640441    0.000000
     10          6           0        2.564548    1.489229    0.000000
     11          1           0        3.110047    1.138373    0.878773
     12          1           0        3.110047    1.138373   -0.878773
     13          1           0        2.581489    2.579434    0.000000
 ---------------------------------------------------------------------
                    Distance matrix (angstroms):
                    1          2          3          4          5
     1  C    0.000000
     2  N    1.333149   0.000000
     3  C    2.267823   1.328962   0.000000
     4  C    2.707509   2.406495   1.400318   0.000000
     5  C    2.275496   2.712386   2.349193   1.401101   0.000000
     6  N    1.330791   2.373829   2.717935   2.423212   1.351071
     7  H    3.238759   3.790660   3.351216   2.161706   1.079368
     8  Cl   1.798938   2.677921   3.913877   4.506384   3.932655
     9  Cl   3.922290   2.678837   1.812102   2.791282   4.049422
    10  C    4.207237   3.790679   2.559801   1.499805   2.539215
    11  H    4.716868   4.149552   2.889367   2.150776   3.260924
    12  H    4.716868   4.149552   2.889367   2.150776   3.260924
    13  H    4.696672   4.549579   3.445109   2.143103   2.635129
                    6          7          8          9         10
     6  N    0.000000
     7  H    2.065008   0.000000
     8  Cl   2.683075   4.747988   0.000000
     9  Cl   4.528600   4.945303   5.331774   0.000000
    10  C    3.795812   2.771233   6.006150   3.162449   0.000000
    11  H    4.437418   3.530687   6.484205   3.081127   1.092205
    12  H    4.437418   3.530687   6.484205   3.081127   1.092205
    13  H    3.985442   2.416057   6.466041   4.246088   1.090336
                   11         12         13
    11  H    0.000000
    12  H    1.757547   0.000000
    13  H    1.768692   1.768692   0.000000
 Stoichiometry    C5H4Cl2N2
 Framework group  CS[SG(C5H2Cl2N2),X(H2)]
 Deg. of freedom    22
 Full point group                 CS      NOp   2
 Largest Abelian subgroup         CS      NOp   2
 Largest concise Abelian subgroup CS      NOp   2
                         Standard orientation:                         
 ---------------------------------------------------------------------
 Center     Atomic      Atomic             Coordinates (Angstroms)
 Number     Number       Type             X           Y           Z
 ---------------------------------------------------------------------
      1          6           0        0.487027   -1.316515    0.000000
      2          7           0        0.923823   -0.056953    0.000000
      3          6           0        0.000000    0.898395    0.000000
      4          6           0       -1.377507    0.646675    0.000000
      5          6           0       -1.707527   -0.715005    0.000000
      6          7           0       -0.786312   -1.703313    0.000000
      7          1           0       -2.739230   -1.032219    0.000000
      8         17           0        1.739809   -2.607528    0.000000
      9         17           0        0.612737    2.603760    0.000000
     10          6           0       -2.424016    1.721029    0.000000
     11          1           0       -2.330572    2.362852    0.878773
     12          1           0       -2.330572    2.362852   -0.878773
     13          1           0       -3.423353    1.284957    0.000000
 ---------------------------------------------------------------------
 Rotational constants (GHZ):      2.1083084      0.7544016      0.5575044
 Standard basis: 6-311G (5D, 7F)
 There are   111 symmetry adapted cartesian basis functions of A'  symmetry.
 There are    34 symmetry adapted cartesian basis functions of A"  symmetry.
 There are   111 symmetry adapted basis functions of A'  symmetry.
 There are    34 symmetry adapted basis functions of A"  symmetry.
   145 basis functions,   288 primitive gaussians,   145 cartesian basis functions
    41 alpha electrons       41 beta electrons
       nuclear repulsion energy       554.2722722234 Hartrees.
 NAtoms=   13 NActive=   13 NUniq=   12 SFac= 1.17D+00 NAtFMM=   60 NAOKFM=F Big=F
 Integral buffers will be    262144 words long.
 Raffenetti 2 integral format.
 Two-electron integral symmetry is turned on.
 One-electron integrals computed using PRISM.
 NBasis=   145 RedAO= T EigKep=  1.22D-03  NBF=   111    34
 NBsUse=   145 1.00D-06 EigRej= -1.00D+00 NBFU=   111    34
 Initial guess from the checkpoint file:  "D:\mindmap\gaussian\calculate\opt_freq\QM1\6-311g.chk"
 B after Tr=     0.000000    0.000000    0.000000
         Rot=    1.000000    0.000000    0.000000    0.000384 Ang=   0.04 deg.
 Initial guess orbital symmetries:
       Occupied  (A') (A') (A') (A') (A') (A') (A') (A') (A') (A')
                 (A') (A') (A") (A') (A') (A") (A') (A') (A') (A')
                 (A') (A') (A') (A') (A') (A') (A') (A") (A') (A')
                 (A") (A') (A') (A") (A") (A') (A') (A') (A") (A")
                 (A')
       Virtual   (A') (A') (A') (A') (A') (A') (A') (A') (A') (A')
                 (A') (A') (A') (A') (A') (A') (A') (A') (A') (A')
                 (A') (A') (A') (A') (A') (A') (A') (A') (A') (A')
                 (A') (A') (A') (A') (A') (A') (A') (A') (A') (A')
                 (A') (A') (A') (A') (A') (A') (A') (A') (A') (A')
                 (A') (A') (A') (A') (A') (A') (A') (A') (A') (A')
                 (A') (A') (A') (A') (A') (A') (A') (A') (A') (A')
                 (A') (A') (A') (A') (A') (A') (A') (A') (A") (A")
                 (A") (A") (A") (A") (A") (A") (A") (A") (A") (A")
                 (A") (A") (A") (A") (A") (A") (A") (A") (A") (A")
                 (A") (A") (A") (A")
 ExpMin= 1.03D-01 ExpMax= 1.06D+05 ExpMxC= 3.62D+03 IAcc=2 IRadAn=         4 AccDes= 0.00D+00
 Harris functional with IExCor=  402 and IRadAn=       4 diagonalized for initial guess.
 HarFok:  IExCor=  402 AccDes= 0.00D+00 IRadAn=         4 IDoV= 1 UseB2=F ITyADJ=14
 ICtDFT=  3500011 ScaDFX=  1.000000  1.000000  1.000000  1.000000
 FoFCou: FMM=F IPFlag=           0 FMFlag=      100000 FMFlg1=           0
         NFxFlg=           0 DoJE=T BraDBF=F KetDBF=T FulRan=T
         wScrn=  0.000000 ICntrl=     500 IOpCl=  0 I1Cent=   200000004 NGrid=           0
         NMat0=    1 NMatS0=      1 NMatT0=    0 NMatD0=    1 NMtDS0=    0 NMtDT0=    0
 Petite list used in FoFCou.
 Keep R1 ints in memory in symmetry-blocked form, NReq=86443437.
 Requested convergence on RMS density matrix=1.00D-08 within 128 cycles.
 Requested convergence on MAX density matrix=1.00D-06.
 Requested convergence on             energy=1.00D-06.
 No special actions if energy rises.
 Integral accuracy reduced to 1.0D-05 until final iterations.
 Initial convergence to 1.0D-05 achieved.  Increase integral accuracy.
 SCF Done:  E(RB3LYP) =  -1222.81641717     A.U. after   12 cycles
            NFock= 12  Conv=0.74D-08     -V/T= 2.0025
 Calling FoFJK, ICntrl=      2127 FMM=F ISym2X=1 I1Cent= 0 IOpClX= 0 NMat=1 NMatS=1 NMatT=0.
 ***** Axes restored to original set *****
 -------------------------------------------------------------------
 Center     Atomic                   Forces (Hartrees/Bohr)
 Number     Number              X              Y              Z
 -------------------------------------------------------------------
      1        6          -0.000863977    0.001597008    0.000000000
      2        7           0.003452986   -0.000246769    0.000000000
      3        6          -0.004408482   -0.000538413    0.000000000
      4        6           0.001040524    0.000054611    0.000000000
      5        6          -0.000099282    0.000051557    0.000000000
      6        7          -0.000475071   -0.000433578    0.000000000
      7        1           0.000178668    0.000807434    0.000000000
      8       17          -0.001094722   -0.000400233    0.000000000
      9       17           0.001877073   -0.001003931    0.000000000
     10        6           0.000353221    0.000443551    0.000000000
     11        1          -0.000055064    0.000190850   -0.000502211
     12        1          -0.000055064    0.000190850    0.000502211
     13        1           0.000149188   -0.000712936    0.000000000
 -------------------------------------------------------------------
 Cartesian Forces:  Max     0.004408482 RMS     0.001068506

 GradGradGradGradGradGradGradGradGradGradGradGradGradGradGradGradGradGrad
 Berny optimization.
 Using GEDIIS/GDIIS optimizer.
 FormGI is forming the generalized inverse of G from B-inverse, IUseBI=4.
 Internal  Forces:  Max     0.002049972 RMS     0.000604400
 Search for a local minimum.
 Step number   3 out of a maximum of   65
 All quantities printed in internal units (Hartrees-Bohrs-Radians)
 Mixed Optimization -- En-DIIS/RFO-DIIS
 Update second derivatives using D2CorX and points    1    2    3
 DE= -6.09D-04 DEPred=-5.45D-04 R= 1.12D+00
 TightC=F SS=  1.41D+00  RLast= 7.08D-02 DXNew= 7.9909D-01 2.1238D-01
 Trust test= 1.12D+00 RLast= 7.08D-02 DXMaxT set to 4.75D-01
 ITU=  1  1  0
 Use linear search instead of GDIIS.
     Eigenvalues ---    0.00237   0.01209   0.02006   0.02081   0.02107
     Eigenvalues ---    0.02206   0.02239   0.02254   0.06911   0.06930
     Eigenvalues ---    0.14300   0.16000   0.16001   0.16020   0.19981
     Eigenvalues ---    0.23685   0.25000   0.25000   0.25098   0.25263
     Eigenvalues ---    0.26139   0.29072   0.29556   0.33894   0.37222
     Eigenvalues ---    0.37230   0.38395   0.43203   0.43332   0.49336
     Eigenvalues ---    0.51559   0.54969   0.56484
 RFO step:  Lambda=-4.77046550D-05 EMin= 2.36824203D-03
 Quartic linear search produced a step of  0.15078.
 Iteration  1 RMS(Cart)=  0.00276383 RMS(Int)=  0.00000647
 Iteration  2 RMS(Cart)=  0.00000809 RMS(Int)=  0.00000440
 Iteration  3 RMS(Cart)=  0.00000000 RMS(Int)=  0.00000440
 ClnCor:  largest displacement from symmetrization is 7.78D-12 for atom    12.
 Variable       Old X    -DE/DX   Delta X   Delta X   Delta X     New X
                                 (Linear)    (Quad)   (Total)
    R1        2.51929   0.00205  -0.00182   0.00481   0.00300   2.52229
    R2        2.51483  -0.00001  -0.00215   0.00070  -0.00145   2.51338
    R3        3.39950   0.00117   0.00397   0.00264   0.00662   3.40612
    R4        2.51137  -0.00194  -0.00302  -0.00237  -0.00539   2.50599
    R5        2.64622   0.00080   0.00071   0.00102   0.00172   2.64794
    R6        3.42438   0.00204   0.00570   0.00507   0.01077   3.43515
    R7        2.64770   0.00079   0.00102   0.00090   0.00193   2.64962
    R8        2.83422   0.00041  -0.00391   0.00333  -0.00058   2.83364
    R9        2.55315   0.00080   0.00025   0.00161   0.00186   2.55502
   R10        2.03971   0.00082  -0.00032   0.00210   0.00178   2.04149
   R11        2.06397  -0.00049   0.00096  -0.00143  -0.00048   2.06349
   R12        2.06397  -0.00049   0.00096  -0.00143  -0.00048   2.06349
   R13        2.06044  -0.00071   0.00079  -0.00204  -0.00125   2.05919
    A1        2.19951  -0.00039   0.00021  -0.00206  -0.00186   2.19765
    A2        2.03741   0.00019  -0.00027   0.00106   0.00079   2.03821
    A3        2.04626   0.00020   0.00006   0.00100   0.00107   2.04732
    A4        2.03916   0.00028   0.00044   0.00081   0.00125   2.04041
    A5        2.15868   0.00037   0.00087   0.00098   0.00185   2.16053
    A6        2.02803   0.00082   0.00036   0.00359   0.00395   2.03198
    A7        2.09647  -0.00119  -0.00123  -0.00457  -0.00580   2.09067
    A8        1.98932  -0.00011  -0.00134  -0.00059  -0.00194   1.98738
    A9        2.16232  -0.00001   0.00154  -0.00042   0.00112   2.16344
   A10        2.13155   0.00012  -0.00019   0.00101   0.00082   2.13236
   A11        2.15354  -0.00018  -0.00063   0.00033  -0.00030   2.15324
   A12        2.10687   0.00001   0.00050  -0.00092  -0.00041   2.10645
   A13        2.02278   0.00017   0.00013   0.00059   0.00071   2.02349
   A14        2.02616   0.00003   0.00045   0.00054   0.00100   2.02716
   A15        1.94040   0.00020   0.00172   0.00042   0.00214   1.94254
   A16        1.94040   0.00020   0.00172   0.00042   0.00214   1.94254
   A17        1.93161   0.00017   0.00179   0.00034   0.00211   1.93373
   A18        1.86996  -0.00027  -0.00266  -0.00094  -0.00360   1.86636
   A19        1.88961  -0.00016  -0.00141  -0.00015  -0.00158   1.88803
   A20        1.88961  -0.00016  -0.00141  -0.00015  -0.00158   1.88803
    D1        0.00000   0.00000   0.00000   0.00000   0.00000   0.00000
    D2        3.14159   0.00000   0.00000   0.00000   0.00000   3.14159
    D3        0.00000   0.00000   0.00000   0.00000   0.00000   0.00000
    D4        3.14159   0.00000   0.00000   0.00000   0.00000   3.14159
    D5        0.00000   0.00000   0.00000   0.00000   0.00000   0.00000
    D6        3.14159   0.00000   0.00000   0.00000   0.00000   3.14159
    D7        0.00000   0.00000   0.00000   0.00000   0.00000   0.00000
    D8        3.14159   0.00000   0.00000   0.00000   0.00000   3.14159
    D9        3.14159   0.00000   0.00000   0.00000   0.00000   3.14159
   D10        0.00000   0.00000   0.00000   0.00000   0.00000   0.00000
   D11        0.00000   0.00000   0.00000   0.00000   0.00000   0.00000
   D12        3.14159   0.00000   0.00000   0.00000   0.00000   3.14159
   D13        3.14159   0.00000   0.00000   0.00000   0.00000   3.14159
   D14        0.00000   0.00000   0.00000   0.00000   0.00000   0.00000
   D15       -1.04089   0.00004   0.00054   0.00031   0.00085  -1.04004
   D16        1.04089  -0.00004  -0.00054  -0.00031  -0.00085   1.04004
   D17        3.14159   0.00000   0.00000   0.00000   0.00000   3.14159
   D18        2.10070   0.00004   0.00054   0.00031   0.00085   2.10156
   D19       -2.10070  -0.00004  -0.00054  -0.00031  -0.00085  -2.10156
   D20        0.00000   0.00000   0.00000   0.00000   0.00000   0.00000
   D21        0.00000   0.00000   0.00000   0.00000   0.00000   0.00000
   D22        3.14159   0.00000   0.00000   0.00000   0.00000   3.14159
         Item               Value     Threshold  Converged?
 Maximum Force            0.002050     0.000450     NO 
 RMS     Force            0.000604     0.000300     NO 
 Maximum Displacement     0.012496     0.001800     NO 
 RMS     Displacement     0.002767     0.001200     NO 
 Predicted change in Energy=-3.435669D-05
 GradGradGradGradGradGradGradGradGradGradGradGradGradGradGradGradGradGrad

                          Input orientation:                          
 ---------------------------------------------------------------------
 Center     Atomic      Atomic             Coordinates (Angstroms)
 Number     Number       Type             X           Y           Z
 ---------------------------------------------------------------------
      1          6           0       -1.408102    0.098075    0.000000
      2          7           0       -0.440125   -0.820914    0.000000
      3          6           0        0.809303   -0.376499    0.000000
      4          6           0        1.153248    0.981863    0.000000
      5          6           0        0.049528    1.846584    0.000000
      6          7           0       -1.232276    1.416425    0.000000
      7          1           0        0.188414    2.917932    0.000000
      8         17           0       -3.104978   -0.509707    0.000000
      9         17           0        2.117012   -1.639156    0.000000
     10          6           0        2.564566    1.488501    0.000000
     11          1           0        3.111877    1.137818    0.877401
     12          1           0        3.111877    1.137818   -0.877401
     13          1           0        2.584478    2.577995    0.000000
 ---------------------------------------------------------------------
                    Distance matrix (angstroms):
                    1          2          3          4          5
     1  C    0.000000
     2  N    1.334736   0.000000
     3  C    2.267620   1.326112   0.000000
     4  C    2.709537   2.406001   1.401230   0.000000
     5  C    2.276393   2.712067   2.349331   1.402120   0.000000
     6  N    1.330023   2.373434   2.717097   2.424782   1.352057
     7  H    3.240440   3.791309   3.352428   2.163162   1.080312
     8  Cl   1.802439   2.682963   3.916546   4.511903   3.937387
     9  Cl   3.929936   2.684859   1.817803   2.792594   4.052761
    10  C    4.208963   3.789665   2.561088   1.499500   2.540401
    11  H    4.720286   4.150082   2.892203   2.151832   3.263459
    12  H    4.720286   4.150082   2.892203   2.151832   3.263459
    13  H    4.700074   4.549814   3.446778   2.143842   2.638358
                    6          7          8          9         10
     6  N    0.000000
     7  H    2.067095   0.000000
     8  Cl   2.686447   4.753434   0.000000
     9  Cl   4.533685   4.948387   5.342736   0.000000
    10  C    3.797525   2.772971   6.011369   3.159516   0.000000
    11  H    4.440621   3.533451   6.491029   3.077527   1.091953
    12  H    4.440621   3.533451   6.491029   3.077527   1.091953
    13  H    3.989594   2.420059   6.473315   4.242981   1.089676
                   11         12         13
    11  H    0.000000
    12  H    1.754802   0.000000
    13  H    1.766944   1.766944   0.000000
 Stoichiometry    C5H4Cl2N2
 Framework group  CS[SG(C5H2Cl2N2),X(H2)]
 Deg. of freedom    22
 Full point group                 CS      NOp   2
 Largest Abelian subgroup         CS      NOp   2
 Largest concise Abelian subgroup CS      NOp   2
                         Standard orientation:                         
 ---------------------------------------------------------------------
 Center     Atomic      Atomic             Coordinates (Angstroms)
 Number     Number       Type             X           Y           Z
 ---------------------------------------------------------------------
[...]
 Second derivative matrix not updated -- analytic derivatives used.
 ITU=  0
     Eigenvalues ---    0.00157   0.01366   0.01793   0.02335   0.02791
     Eigenvalues ---    0.03760   0.04325   0.05969   0.06041   0.06690
     Eigenvalues ---    0.12500   0.12995   0.13659   0.15529   0.15535
     Eigenvalues ---    0.16110   0.17224   0.19240   0.19966   0.22293
     Eigenvalues ---    0.23510   0.25556   0.30943   0.33077   0.33264
     Eigenvalues ---    0.33968   0.34408   0.35862   0.42408   0.43016
     Eigenvalues ---    0.50215   0.51313   0.56272
 Angle between quadratic step and forces=  20.25 degrees.
 Linear search not attempted -- first point.
 Iteration  1 RMS(Cart)=  0.00042282 RMS(Int)=  0.00000020
 Iteration  2 RMS(Cart)=  0.00000027 RMS(Int)=  0.00000005
 ClnCor:  largest displacement from symmetrization is 5.75D-11 for atom    12.
 Variable       Old X    -DE/DX   Delta X   Delta X   Delta X     New X
                                 (Linear)    (Quad)   (Total)
    R1        2.52408   0.00037   0.00000   0.00163   0.00163   2.52571
    R2        2.51282  -0.00020   0.00000  -0.00089  -0.00089   2.51193
    R3        3.40580  -0.00030   0.00000  -0.00190  -0.00190   3.40390
    R4        2.50344  -0.00004   0.00000  -0.00057  -0.00057   2.50287
    R5        2.64926   0.00007   0.00000   0.00057   0.00057   2.64984
    R6        3.43869   0.00006   0.00000   0.00064   0.00064   3.43933
    R7        2.64912  -0.00020   0.00000  -0.00099  -0.00099   2.64813
    R8        2.83377   0.00017   0.00000   0.00073   0.00073   2.83450
    R9        2.55564   0.00023   0.00000   0.00085   0.00085   2.55649
   R10        2.04195  -0.00003   0.00000  -0.00012  -0.00012   2.04183
   R11        2.06276  -0.00005   0.00000  -0.00021  -0.00021   2.06255
   R12        2.06276  -0.00005   0.00000  -0.00021  -0.00021   2.06255
   R13        2.05844  -0.00002   0.00000  -0.00009  -0.00009   2.05835
    A1        2.19795  -0.00009   0.00000  -0.00048  -0.00048   2.19747
    A2        2.03739  -0.00003   0.00000  -0.00053  -0.00053   2.03685
    A3        2.04785   0.00012   0.00000   0.00101   0.00101   2.04886
    A4        2.03955  -0.00003   0.00000  -0.00028  -0.00028   2.03927
    A5        2.16153   0.00005   0.00000   0.00048   0.00048   2.16201
    A6        2.03264  -0.00001   0.00000  -0.00003  -0.00003   2.03261
    A7        2.08901  -0.00004   0.00000  -0.00045  -0.00045   2.08856
    A8        1.98730  -0.00002   0.00000  -0.00016  -0.00016   1.98714
    A9        2.16370  -0.00004   0.00000  -0.00030  -0.00030   2.16339
   A10        2.13219   0.00006   0.00000   0.00046   0.00046   2.13265
   A11        2.15268   0.00004   0.00000  -0.00005  -0.00005   2.15263
   A12        2.10696   0.00002   0.00000   0.00059   0.00059   2.10755
   A13        2.02355  -0.00005   0.00000  -0.00054  -0.00054   2.02301
   A14        2.02736   0.00005   0.00000   0.00049   0.00049   2.02785
   A15        1.94176  -0.00005   0.00000  -0.00047  -0.00047   1.94129
   A16        1.94176  -0.00005   0.00000  -0.00047  -0.00047   1.94129
   A17        1.93320  -0.00006   0.00000  -0.00056  -0.00056   1.93264
   A18        1.86700   0.00006   0.00000   0.00069   0.00069   1.86769
   A19        1.88881   0.00005   0.00000   0.00045   0.00045   1.88926
   A20        1.88881   0.00005   0.00000   0.00045   0.00045   1.88926
    D1        0.00000   0.00000   0.00000   0.00000   0.00000   0.00000
    D2        3.14159   0.00000   0.00000   0.00000   0.00000   3.14159
    D3        0.00000   0.00000   0.00000   0.00000   0.00000   0.00000
    D4        3.14159   0.00000   0.00000   0.00000   0.00000   3.14159
    D5        0.00000   0.00000   0.00000   0.00000   0.00000   0.00000
    D6        3.14159   0.00000   0.00000   0.00000   0.00000   3.14159
    D7        0.00000   0.00000   0.00000   0.00000   0.00000   0.00000
    D8        3.14159   0.00000   0.00000   0.00000   0.00000   3.14159
    D9        3.14159   0.00000   0.00000   0.00000   0.00000   3.14159
   D10        0.00000   0.00000   0.00000   0.00000   0.00000   0.00000
   D11        0.00000   0.00000   0.00000   0.00000   0.00000   0.00000
   D12        3.14159   0.00000   0.00000   0.00000   0.00000   3.14159
   D13        3.14159   0.00000   0.00000   0.00000   0.00000   3.14159
   D14        0.00000   0.00000   0.00000   0.00000   0.00000   0.00000
   D15       -1.03992  -0.00001   0.00000  -0.00013  -0.00013  -1.04005
   D16        1.03992   0.00001   0.00000   0.00013   0.00013   1.04005
   D17        3.14159   0.00000   0.00000   0.00000   0.00000   3.14159
   D18        2.10167  -0.00001   0.00000  -0.00013  -0.00013   2.10154
   D19       -2.10167   0.00001   0.00000   0.00013   0.00013  -2.10154
   D20        0.00000   0.00000   0.00000   0.00000   0.00000   0.00000
   D21        0.00000   0.00000   0.00000   0.00000   0.00000   0.00000
   D22        3.14159   0.00000   0.00000   0.00000   0.00000   3.14159
         Item               Value     Threshold  Converged?
 Maximum Force            0.000368     0.000450     YES
 RMS     Force            0.000092     0.000300     YES
 Maximum Displacement     0.001305     0.001800     YES
 RMS     Displacement     0.000423     0.001200     YES
 Predicted change in Energy=-1.258683D-06
 Optimization completed.
    -- Stationary point found.
                           ----------------------------
                           !   Optimized Parameters   !
                           ! (Angstroms and Degrees)  !
 --------------------------                            --------------------------
 ! Name  Definition              Value          Derivative Info.                !
 --------------------------------------------------------------------------------
 ! R1    R(1,2)                  1.3357         -DE/DX =    0.0004              !
 ! R2    R(1,6)                  1.3297         -DE/DX =   -0.0002              !
 ! R3    R(1,8)                  1.8023         -DE/DX =   -0.0003              !
 ! R4    R(2,3)                  1.3248         -DE/DX =    0.0                 !
 ! R5    R(3,4)                  1.4019         -DE/DX =    0.0001              !
 ! R6    R(3,9)                  1.8197         -DE/DX =    0.0001              !
 ! R7    R(4,5)                  1.4019         -DE/DX =   -0.0002              !
 ! R8    R(4,10)                 1.4996         -DE/DX =    0.0002              !
 ! R9    R(5,6)                  1.3524         -DE/DX =    0.0002              !
 ! R10   R(5,7)                  1.0806         -DE/DX =    0.0                 !
 ! R11   R(10,11)                1.0916         -DE/DX =   -0.0001              !
 ! R12   R(10,12)                1.0916         -DE/DX =   -0.0001              !
 ! R13   R(10,13)                1.0893         -DE/DX =    0.0                 !
 ! A1    A(2,1,6)              125.9333         -DE/DX =   -0.0001              !
 ! A2    A(2,1,8)              116.7336         -DE/DX =    0.0                 !
 ! A3    A(6,1,8)              117.3331         -DE/DX =    0.0001              !
 ! A4    A(1,2,3)              116.8576         -DE/DX =    0.0                 !
 ! A5    A(2,3,4)              123.8468         -DE/DX =    0.0001              !
 ! A6    A(2,3,9)              116.4618         -DE/DX =    0.0                 !
 ! A7    A(4,3,9)              119.6914         -DE/DX =    0.0                 !
 ! A8    A(3,4,5)              113.8637         -DE/DX =    0.0                 !
 ! A9    A(3,4,10)             123.9706         -DE/DX =    0.0                 !
 ! A10   A(5,4,10)             122.1657         -DE/DX =    0.0001              !
 ! A11   A(4,5,6)              123.3394         -DE/DX =    0.0                 !
 ! A12   A(4,5,7)              120.7196         -DE/DX =    0.0                 !
 ! A13   A(6,5,7)              115.9409         -DE/DX =   -0.0001              !
 ! A14   A(1,6,5)              116.1592         -DE/DX =    0.0001              !
 ! A15   A(4,10,11)            111.2546         -DE/DX =   -0.0001              !
 ! A16   A(4,10,12)            111.2546         -DE/DX =   -0.0001              !
 ! A17   A(4,10,13)            110.7645         -DE/DX =   -0.0001              !
 ! A18   A(11,10,12)           106.9711         -DE/DX =    0.0001              !
 ! A19   A(11,10,13)           108.2207         -DE/DX =    0.0001              !
 ! A20   A(12,10,13)           108.2207         -DE/DX =    0.0001              !
 ! D1    D(6,1,2,3)              0.0            -DE/DX =    0.0                 !
 ! D2    D(8,1,2,3)            180.0            -DE/DX =    0.0                 !
 ! D3    D(2,1,6,5)              0.0            -DE/DX =    0.0                 !
 ! D4    D(8,1,6,5)            180.0            -DE/DX =    0.0                 !
 ! D5    D(1,2,3,4)              0.0            -DE/DX =    0.0                 !
 ! D6    D(1,2,3,9)            180.0            -DE/DX =    0.0                 !
 ! D7    D(2,3,4,5)              0.0            -DE/DX =    0.0                 !
 ! D8    D(2,3,4,10)           180.0            -DE/DX =    0.0                 !
 ! D9    D(9,3,4,5)            180.0            -DE/DX =    0.0                 !
 ! D10   D(9,3,4,10)             0.0            -DE/DX =    0.0                 !
 ! D11   D(3,4,5,6)              0.0            -DE/DX =    0.0                 !
 ! D12   D(3,4,5,7)            180.0            -DE/DX =    0.0                 !
 ! D13   D(10,4,5,6)           180.0            -DE/DX =    0.0                 !
 ! D14   D(10,4,5,7)             0.0            -DE/DX =    0.0                 !
 ! D15   D(3,4,10,11)          -59.5833         -DE/DX =    0.0                 !
 ! D16   D(3,4,10,12)           59.5833         -DE/DX =    0.0                 !
 ! D17   D(3,4,10,13)          180.0            -DE/DX =    0.0                 !
 ! D18   D(5,4,10,11)          120.4167         -DE/DX =    0.0                 !
 ! D19   D(5,4,10,12)         -120.4167         -DE/DX =    0.0                 !
 ! D20   D(5,4,10,13)            0.0            -DE/DX =    0.0                 !
 ! D21   D(4,5,6,1)              0.0            -DE/DX =    0.0                 !
 ! D22   D(7,5,6,1)            180.0            -DE/DX =    0.0                 !
 --------------------------------------------------------------------------------
 GradGradGradGradGradGradGradGradGradGradGradGradGradGradGradGradGradGrad

 1|1|UNPC-DESKTOP-KC5UJLK|Freq|RB3LYP|6-311G|C5H4Cl2N2|23122|01-Apr-202
 2|0||#N Geom=AllCheck Guess=TCheck SCRF=Check GenChk RB3LYP/6-311G Fre
 q||Energy Calculation(GC)||0,1|C,-1.4080269016,0.0986398865,0.|N,-0.43
 96794295,-0.82134133,0.|C,0.808249423,-0.3767376597,0.|C,1.153035408,0
 .9821322144,0.|C,0.0498798949,1.8471439503,0.|N,-1.2321732675,1.416689
 3504,0.|H,0.1886996858,2.9187438828,0.|Cl,-3.1044538131,-0.5098921205,
 0.|Cl,2.1187902011,-1.6391602057,0.|C,2.5645386918,1.4884526265,0.|H,3
 .1109117089,1.1372551081,0.8772995246|H,3.1109117089,1.1372551081,-0.8
 772995246|H,2.5841396394,2.577554228,0.||Version=IA32W-G09RevD.01|Stat
 e=1-A'|HF=-1222.816463|RMSD=6.340e-009|RMSF=1.897e-004|ZeroPoint=0.084
 5825|Thermal=0.0927322|Dipole=1.4191124,1.2136533,0.|DipoleDeriv=2.110
 501,0.398339,0.,0.5430615,0.6530463,0.,0.,0.,0.1504502,-1.5187936,0.08
 64568,0.,0.0988656,-0.4230791,0.,0.,0.,-0.1555027,1.2675775,-0.6725833
 ,0.,-0.6811003,1.0137366,0.,0.,0.,0.0627615,0.0191864,0.4040485,0.,0.3
 72626,-0.579968,0.,0.,0.,0.0672486,0.4743104,-0.2830902,0.,0.1137859,0
 .4815509,0.,0.,0.,0.0086207,-0.9185637,-0.0279964,0.,-0.5142853,-0.628
 8768,0.,0.,0.,-0.2053906,0.0520267,-0.0398037,0.,-0.0496093,-0.0571613
 ,0.,0.,0.,0.1119561,-0.8757022,-0.2276099,0.,-0.2871428,-0.1566345,0.,
 0.,0.,-0.0851286,-0.5590094,0.3927092,0.,0.4449137,-0.4652827,0.,0.,0.
 ,-0.0934739,-0.1345552,-0.0423803,0.,0.017882,0.1642868,0.,0.,0.,0.075
 7119,0.0097546,-0.0212234,-0.0510924,0.0011812,0.0651546,0.0697346,-0.
 0724101,0.038553,-0.0197202,0.0097546,-0.0212234,0.0510924,0.0011812,0
 .0651546,-0.0697346,0.0724101,-0.038553,-0.0197202,0.0635128,0.0543571
 ,0.,-0.0613594,-0.1319275,0.,0.,0.,0.1021873|Polar=129.3260427,0.71456
 81,89.5141655,0.,0.,36.2439287|PG=CS [SG(C5H2Cl2N2),X(H2)]|NImag=0||0.
 52879654,-0.00857527,0.56217031,0.,0.,0.15900934,-0.19514112,0.0920591
 9,0.,0.63961004,0.09255834,-0.17019650,0.,-0.05345928,0.34743513,0.,0.
 ,-0.07580670,0.,0.,0.08688035,-0.11854485,0.06109393,0.,-0.29535406,-0
 .06110915,0.,0.56522297,0.01339927,0.04983641,0.,-0.07991148,-0.120754
 18,0.,0.06422085,0.54562941,0.,0.,0.00598660,0.,0.,-0.06542053,0.,0.,0
 .13873325,-0.00146855,0.02781518,0.,-0.00289790,-0.04414477,0.,-0.1238
 4698,-0.07373839,0.,0.67386612,0.02481477,-0.07465044,0.,-0.08940965,0
 .00332985,0.,-0.01698311,-0.27052320,0.,0.01413419,0.62545994,0.,0.,-0
 .00925180,0.,0.,0.01889242,0.,0.,-0.07146215,0.,0.,0.16793600,-0.00687
 558,-0.10661077,0.,-0.08247586,0.02774593,0.,0.06133877,0.07447776,0.,
 -0.22407686,0.04646175,0.,0.61701331,-0.05722327,-0.05185511,0.,0.0046
 6556,0.00237843,0.,0.02344400,-0.05085530,0.,0.11538150,-0.20804845,0.
 ,0.03153509,0.77078363,0.,0.,0.00726609,0.,0.,-0.00555568,0.,0.,0.0052
 7970,0.,0.,-0.06932597,0.,0.,0.15619314,-0.11133143,-0.03661481,0.,0.0
 4716019,0.01730873,0.,-0.02974191,-0.04015054,0.,-0.06662969,0.0453294
 9,0.,-0.28313171,-0.07824015,0.,0.48037729,-0.03060214,-0.28064853,0.,
 0.09114238,-0.07661910,0.,-0.06280757,-0.05313015,0.,-0.00879293,0.068
 49710,0.,-0.06062345,-0.13112979,0.,0.12909561,0.50630540,0.,0.,-0.079
 38607,0.,0.,0.03497388,0.,0.,-0.00597744,0.,0.,0.01917595,0.,0.,-0.065
 11747,0.,0.,0.09098907,-0.00286333,-0.00379933,0.,-0.00019733,-0.00057
 045,0.,-0.00326779,0.00228018,0.,0.00448001,0.02436345,0.,-0.05551195,
 -0.02484644,0.,-0.01378044,-0.03543938,0.,0.07056073,0.00065144,0.0029
 4670,0.,0.00090167,0.00036688,0.,0.00150090,-0.00012569,0.,-0.00575927
 ,-0.01355732,0.,-0.02599947,-0.33914697,0.,-0.00799981,-0.00557675,0.,
 0.03633330,0.35420784,0.,0.,0.01011731,0.,0.,-0.00366757,0.,0.,0.00828
 142,0.,0.,0.00776843,0.,0.,-0.04268328,0.,0.,-0.00278639,0.,0.,0.02655
 225,-0.10088488,-0.02703527,0.,-0.05427152,0.00549429,0.,0.00605511,-0
 .00299933,0.,-0.00284098,-0.00116796,0.,0.00338448,0.00357626,0.,-0.02
 079610,-0.02649274,0.,-0.00067930,-0.00030937,0.,0.17280649,-0.0271761
 8,-0.03457162,0.,0.01517817,0.00592938,0.,0.00146700,-0.00265394,0.,-0
 .00182610,0.00187854,0.,0.00333565,0.00031739,0.,-0.03728194,-0.027300
 66,0.,-0.00076150,-0.00024839,0.,0.04794721,0.05574514,0.,0.,-0.025712
 66,0.,0.,0.00286568,0.,0.,0.00542250,0.,0.,-0.00044316,0.,0.,0.0054720
 0,0.,0.,0.00296011,0.,0.,0.00029697,0.,0.,0.01047391,0.00886643,0.0004
 5414,0.,-0.05977304,0.01333427,0.,-0.04772189,0.04744303,0.,-0.0103477
 7,0.00766414,0.,0.00510721,-0.00183607,0.,-0.00405440,0.00289226,0.,-0
 .00041786,0.00039016,0.,-0.00167030,-0.00026998,0.,0.10746373,-0.00903
 841,-0.00142814,0.,0.01897245,0.01259766,0.,0.02633471,-0.08626277,0.,
 0.03188970,-0.02624316,0.,-0.00974508,-0.00279415,0.,0.00474835,0.0012
 0118,0.,0.00157773,-0.00079698,0.,0.00123912,0.00054772,0.,-0.06690641
 ,0.10620369,0.,0.,0.00710180,0.,0.,0.00019642,0.,0.,-0.02400290,0.,0.,
 0.00627585,0.,0.,0.00529282,0.,0.,-0.00311837,0.,0.,-0.00093143,0.,0.,
 0.00018902,0.,0.,0.01029619,-0.00178047,0.00029818,0.,0.00443134,0.004
 29478,0.,-0.00734687,-0.01084940,0.,-0.19920033,-0.03767435,0.,-0.0325
 0759,-0.00856284,0.,0.00359505,0.00174236,0.,0.00182994,-0.00073190,0.
 ,-0.00033452,-0.00030285,0.,0.00013812,0.00206757,0.,0.49528140,0.0012
 4667,-0.00247275,0.,-0.00180021,-0.00446964,0.,-0.03202562,-0.01177951
 ,0.,-0.04474535,-0.10368792,0.,0.01775880,0.01131242,0.,0.00426762,-0.
 00180688,0.,0.00193248,0.00068558,0.,0.00028038,0.00054200,0.,-0.00322
 317,-0.00186650,0.,-0.02500748,0.57520908,0.,0.,0.00062453,0.,0.,0.006
 93429,0.,0.,0.00040084,0.,0.,-0.07428583,0.,0.,0.00392792,0.,0.,0.0092
 1473,0.,0.,-0.00357104,0.,0.,-0.00162516,0.,0.,-0.00160304,0.,0.,0.537
 05815,0.00043076,0.00058046,0.00009105,-0.00035622,0.00006091,0.001010
 33,-0.00019148,0.00288002,0.00011256,-0.02190815,0.00899623,-0.0258320
 6,-0.00171220,-0.00278472,-0.00074487,-0.00126040,-0.00021367,0.001600
 73,0.00000767,0.00001055,-0.00051660,-0.00033898,-0.00019381,-0.000280
 71,0.00100484,-0.00083952,-0.00012600,-0.10689011,0.04001279,-0.102723
 14,0.12286122,-0.00038357,0.00018779,0.00009021,0.00093575,0.00025113,
 0.00070026,-0.00219545,0.00024706,-0.00020100,-0.00536371,0.00373237,-
 0.01175359,-0.00065673,-0.00061341,0.00001773,0.00020192,0.00003653,0.
 00035200,-0.00014256,0.00019736,0.00022532,-0.00015128,-0.00008110,-0.
 00011198,0.00023890,-0.00056600,-0.00028383,0.03921222,-0.07567883,0.0
 6924846,-0.04318495,0.07947808,0.00012822,-0.00001210,-0.00008053,0.00
 004453,-0.00015011,-0.00018956,-0.00122348,0.00107924,0.00085790,0.001
 87768,-0.00151455,0.00325698,0.00064625,-0.00003414,-0.00036241,0.0001
 6371,-0.00020217,-0.00033485,0.00007543,-0.00007941,0.00015784,-0.0000
 5131,-0.00002461,0.00005224,0.00086472,-0.00006601,0.00003478,-0.10284
 023,0.06858188,-0.21422033,0.11269969,-0.07641285,0.23377065,0.0004307
 6,0.00058046,-0.00009105,-0.00035622,0.00006091,-0.00101033,-0.0001914
 8,0.00288002,-0.00011256,-0.02190815,0.00899623,0.02583206,-0.00171220
 ,-0.00278472,0.00074487,-0.00126040,-0.00021367,-0.00160073,0.00000767
 ,0.00001055,0.00051660,-0.00033898,-0.00019381,0.00028071,0.00100484,-
 0.00083952,0.00012600,-0.10689011,0.04001279,0.10272314,0.00818611,-0.
 00511476,-0.01389179,0.12286122,-0.00038357,0.00018779,-0.00009021,0.0
 0093575,0.00025113,-0.00070026,-0.00219545,0.00024706,0.00020100,-0.00
 536371,0.00373237,0.01175359,-0.00065673,-0.00061341,-0.00001773,0.000
 20192,0.00003653,-0.00035200,-0.00014256,0.00019736,-0.00022532,-0.000
 15128,-0.00008110,0.00011198,0.00023890,-0.00056600,0.00028383,0.03921
 222,-0.07567883,-0.06924846,-0.00511476,0.00297829,0.01006845,-0.04318
 495,0.07947808,-0.00012822,0.00001210,-0.00008053,-0.00004453,0.000150
 12,-0.00018956,0.00122348,-0.00107924,0.00085790,-0.00187768,0.0015145
 5,0.00325698,-0.00064625,0.00003414,-0.00036241,-0.00016371,0.00020217
 ,-0.00033485,-0.00007543,0.00007941,0.00015784,0.00005131,0.00002461,0
 .00005224,-0.00086472,0.00006601,0.00003478,0.10284023,-0.06858188,-0.
 21422033,0.01389179,-0.01006845,-0.02361538,-0.11269969,0.07641285,0.2
 3377065,0.00036571,-0.00024612,0.,-0.00037830,-0.00157450,0.,-0.006409
 54,0.00006802,0.,-0.00322077,-0.03552518,0.,0.00116017,-0.00232419,0.,
 0.00085396,0.00031295,0.,-0.00016803,0.00100126,0.,-0.00009052,0.00007
 814,0.,0.00040009,0.00053930,0.,-0.05032586,0.00129031,0.,0.00016693,0
 .01660422,0.00150658,0.00016693,0.01660422,-0.00150658,0.05747924,0.00
 071193,0.00049409,0.,-0.00021030,-0.00050017,0.,-0.00074504,0.00012480
 ,0.,0.00051365,-0.00991967,0.,0.00297725,0.00026471,0.,-0.00086639,0.0
 0013514,0.,-0.00078493,0.00085038,0.,-0.00023001,-0.00002337,0.,-0.000
 42019,-0.00002656,0.,-0.00369850,-0.31030823,0.,-0.00020953,-0.0101692
 7,-0.00123361,-0.00020953,-0.01016927,0.00123361,0.00317158,0.33924743
 ,0.,0.,0.00021260,0.,0.,0.00008657,0.,0.,0.00104292,0.,0.,-0.00179370,
 0.,0.,-0.00002444,0.,0.,-0.00025830,0.,0.,0.00030764,0.,0.,-0.00000371
 ,0.,0.,0.00023408,0.,0.,-0.04863472,0.00081722,0.02819772,0.00067268,-
 0.00081722,-0.02819772,0.00067268,0.,0.,0.04748569||0.00065659,-0.0003
 9555,0.,-0.00032428,0.00026640,0.,0.00013688,0.00001114,0.,0.00026134,
 -0.00019886,0.,-0.00039489,0.00006540,0.,0.00013911,0.00027605,0.,0.00
 004286,0.00003019,0.,-0.00030182,-0.00005340,0.,-0.00005106,0.00003063
 ,0.,-0.00037295,-0.00004776,0.,0.00007418,-0.00000223,0.00001751,0.000
 07418,-0.00000223,-0.00001751,0.00005984,0.00002022,0.|||@


 Children are likely to live up to what you believe of them.
 -- Lady Bird Johnson
 Job cpu time:       0 days  0 hours  1 minutes 36.0 seconds.
 File lengths (MBytes):  RWF=     40 Int=      0 D2E=      0 Chk=      3 Scr=      1
 Normal termination of Gaussian 09 at Fri Apr 01 15:28:44 2022.
