 Entering Link 1 = C:\G09W\l1.exe PID=     15176.
  
 Copyright (c) 1988,1990,1992,1993,1995,1998,2003,2009,2013,
            Gaussian, Inc.  All Rights Reserved.
  
 This is part of the Gaussian(R) 09 program.  It is based on
 the Gaussian(R) 03 system (copyright 2003, Gaussian, Inc.),
 the Gaussian(R) 98 system (copyright 1998, Gaussian, Inc.),
 the Gaussian(R) 94 system (copyright 1995, Gaussian, Inc.),
 the Gaussian 92(TM) system (copyright 1992, Gaussian, Inc.),
 the Gaussian 90(TM) system (copyright 1990, Gaussian, Inc.),
 the Gaussian 88(TM) system (copyright 1988, Gaussian, Inc.),
 the Gaussian 86(TM) system (copyright 1986, Carnegie Mellon
 University), and the Gaussian 82(TM) system (copyright 1983,
 Carnegie Mellon University). Gaussian is a federally registered
 trademark of Gaussian, Inc.
  
 This software contains proprietary and confidential information,
 including trade secrets, belonging to Gaussian, Inc.
  
 This software is provided under written license and may be
 used, copied, transmitted, or stored only in accord with that
 written license.
  
 The following legend is applicable only to US Government
 contracts under FAR:
  
                    RESTRICTED RIGHTS LEGEND
  
 Use, reproduction and disclosure by the US Government is
 subject to restrictions as set forth in subparagraphs (a)
 and (c) of the Commercial Computer Software - Restricted
 Rights clause in FAR 52.227-19.
  
 Gaussian, Inc.
 340 Quinnipiac St., Bldg. 40, Wallingford CT 06492
  
  
 ---------------------------------------------------------------
 Warning -- This program may not be used in any manner that
 competes with the business of Gaussian, Inc. or will provide
 assistance to any competitor of Gaussian, Inc.  The licensee
 of this program is prohibited from giving any competitor of
 Gaussian, Inc. access to this program.  By using this program,
 the user acknowledges that Gaussian, Inc. is engaged in the
 business of creating and licensing software in the field of
 computational chemistry and represents and warrants to the
 licensee that it is not a competitor of Gaussian, Inc. and that
 it will not use this program in any manner prohibited above.
 ---------------------------------------------------------------
  

 Cite this work as:
 Gaussian 09, Revision D.01,
 M. J. Frisch, G. W. Trucks, H. B. Schlegel, G. E. Scuseria, 
 M. A. Robb, J. R. Cheeseman, G. Scalmani, V. Barone, B. Mennucci, 
 G. A. Petersson, H. Nakatsuji, M. Caricato, X. Li, H. P. Hratchian, 
 A. F. Izmaylov, J. Bloino, G. Zheng, J. L. Sonnenberg, M. Hada, 
 M. Ehara, K. Toyota, R. Fukuda, J. Hasegawa, M. Ishida, T. Nakajima, 
 Y. Honda, O. Kitao, H. Nakai, T. Vreven, J. A. Montgomery, Jr., 
 J. E. Peralta, F. Ogliaro, M. Bearpark, J. J. Heyd, E. Brothers, 
 K. N. Kudin, V. N. Staroverov, T. Keith, R. Kobayashi, J. Normand, 
 K. Raghavachari, A. Rendell, J. C. Burant, S. S. Iyengar, J. Tomasi, 
 M. Cossi, N. Rega, J. M. Millam, M. Klene, J. E. Knox, J. B. Cross, 
 V. Bakken, C. Adamo, J. Jaramillo, R. Gomperts, R. E. Stratmann, 
 O. Yazyev, A. J. Austin, R. Cammi, C. Pomelli, J. W. Ochterski, 
 R. L. Martin, K. Morokuma, V. G. Zakrzewski, G. A. Voth, 
 P. Salvador, J. J. Dannenberg, S. Dapprich, A. D. Daniels, 
 O. Farkas, J. B. Foresman, J. V. Ortiz, J. Cioslowski, 
 and D. J. Fox, Gaussian, Inc., Wallingford CT, 2013.
 
 ******************************************
 Gaussian 09:  IA32W-G09RevD.01 24-Apr-2013
                01-Apr-2022 
 ******************************************
 %nprocshared=4
 Will use up to    4 processors via shared memory.
 %mem=1GB
 %chk=D:\mindmap\gaussian\calculate\opt_freq\QM1\6-311++g.chk
 -----------------------------------------------------
 # opt freq nmr b3lyp/6-311++g(2d,p) geom=connectivity
 -----------------------------------------------------
 1/14=-1,18=20,19=15,26=3,38=1,57=2/1,3;
 2/9=110,12=2,17=6,18=5,40=1/2;
 3/5=4,6=6,7=1112,11=2,16=1,25=1,30=1,71=1,74=-5/1,2,3;
 4//1;
 5/5=2,38=5/2;
 6/7=2,8=2,9=2,10=2,28=1/1;
 7//1,2,3,16;
 1/14=-1,18=20,19=15,26=3/3(2);
 2/9=110/2;
 99//99;
 2/9=110/2;
 3/5=4,6=6,7=1112,11=2,16=1,25=1,30=1,71=1,74=-5/1,2,3;
 4/5=5,16=3,69=1/1;
 5/5=2,38=5/2;
 7//1,2,3,16;
 1/14=-1,18=20,19=15,26=3/3(-5);
 2/9=110/2;
 6/7=2,8=2,9=2,10=2,19=2,28=1/1;
 99/9=1/99;
 ----------------------
 Energy Calculation(GC)
 ----------------------
 Symbolic Z-matrix:
 Charge =  0 Multiplicity = 1
 C                    -1.4104    0.08457   0. 
 N                    -0.43264  -0.86232   0. 
 C                     0.83472  -0.39869   0. 
 C                     1.13303   0.97771   0. 
 C                     0.03969   1.86541   0. 
 N                    -1.23931   1.43492   0. 
 H                     0.18768   2.9601    0. 
 Cl                   -3.07099  -0.49857   0. 
 Cl                    2.1092   -1.61248   0. 
 C                     2.58607   1.4879    0. 
 H                     3.0897    1.13014   0.87365 
 H                     3.0897    1.13014  -0.87365 
 H                     2.58838   2.5579    0. 
 

 GradGradGradGradGradGradGradGradGradGradGradGradGradGradGradGradGradGrad
 Berny optimization.
 Initialization pass.
                           ----------------------------
                           !    Initial Parameters    !
                           ! (Angstroms and Degrees)  !
 --------------------------                            --------------------------
 ! Name  Definition              Value          Derivative Info.                !
 --------------------------------------------------------------------------------
 ! R1    R(1,2)                  1.3611         estimate D2E/DX2                !
 ! R2    R(1,6)                  1.3611         estimate D2E/DX2                !
 ! R3    R(1,8)                  1.76           estimate D2E/DX2                !
 ! R4    R(2,3)                  1.3495         estimate D2E/DX2                !
 ! R5    R(3,4)                  1.4084         estimate D2E/DX2                !
 ! R6    R(3,9)                  1.76           estimate D2E/DX2                !
 ! R7    R(4,5)                  1.4083         estimate D2E/DX2                !
 ! R8    R(4,10)                 1.54           estimate D2E/DX2                !
 ! R9    R(5,6)                  1.3495         estimate D2E/DX2                !
 ! R10   R(5,7)                  1.1046         estimate D2E/DX2                !
 ! R11   R(10,11)                1.07           estimate D2E/DX2                !
 ! R12   R(10,12)                1.07           estimate D2E/DX2                !
 ! R13   R(10,13)                1.07           estimate D2E/DX2                !
 ! A1    A(2,1,6)              126.8598         estimate D2E/DX2                !
 ! A2    A(2,1,8)              116.5695         estimate D2E/DX2                !
 ! A3    A(6,1,8)              116.5707         estimate D2E/DX2                !
 ! A4    A(1,2,3)              115.8253         estimate D2E/DX2                !
 ! A5    A(2,3,4)              122.3225         estimate D2E/DX2                !
 ! A6    A(2,3,9)              116.3034         estimate D2E/DX2                !
 ! A7    A(4,3,9)              121.3741         estimate D2E/DX2                !
 ! A8    A(3,4,5)              116.8447         estimate D2E/DX2                !
 ! A9    A(3,4,10)             121.576          estimate D2E/DX2                !
 ! A10   A(5,4,10)             121.5794         estimate D2E/DX2                !
 ! A11   A(4,5,6)              122.3238         estimate D2E/DX2                !
 ! A12   A(4,5,7)              121.374          estimate D2E/DX2                !
 ! A13   A(6,5,7)              116.3023         estimate D2E/DX2                !
 ! A14   A(1,6,5)              115.824          estimate D2E/DX2                !
 ! A15   A(4,10,11)            109.4713         estimate D2E/DX2                !
 ! A16   A(4,10,12)            109.4713         estimate D2E/DX2                !
 ! A17   A(4,10,13)            109.4712         estimate D2E/DX2                !
 ! A18   A(11,10,12)           109.4706         estimate D2E/DX2                !
 ! A19   A(11,10,13)           109.4714         estimate D2E/DX2                !
 ! A20   A(12,10,13)           109.4714         estimate D2E/DX2                !
 ! D1    D(6,1,2,3)              0.0            estimate D2E/DX2                !
 ! D2    D(8,1,2,3)            180.0            estimate D2E/DX2                !
 ! D3    D(2,1,6,5)              0.0            estimate D2E/DX2                !
 ! D4    D(8,1,6,5)            180.0            estimate D2E/DX2                !
 ! D5    D(1,2,3,4)              0.0            estimate D2E/DX2                !
 ! D6    D(1,2,3,9)            180.0            estimate D2E/DX2                !
 ! D7    D(2,3,4,5)              0.0            estimate D2E/DX2                !
 ! D8    D(2,3,4,10)           180.0            estimate D2E/DX2                !
 ! D9    D(9,3,4,5)            180.0            estimate D2E/DX2                !
 ! D10   D(9,3,4,10)             0.0            estimate D2E/DX2                !
 ! D11   D(3,4,5,6)              0.0            estimate D2E/DX2                !
 ! D12   D(3,4,5,7)            180.0            estimate D2E/DX2                !
 ! D13   D(10,4,5,6)           180.0            estimate D2E/DX2                !
 ! D14   D(10,4,5,7)             0.0            estimate D2E/DX2                !
 ! D15   D(3,4,10,11)          -59.9997         estimate D2E/DX2                !
 ! D16   D(3,4,10,12)           59.9997         estimate D2E/DX2                !
 ! D17   D(3,4,10,13)          180.0            estimate D2E/DX2                !
 ! D18   D(5,4,10,11)          120.0003         estimate D2E/DX2                !
 ! D19   D(5,4,10,12)         -120.0003         estimate D2E/DX2                !
 ! D20   D(5,4,10,13)            0.0            estimate D2E/DX2                !
 ! D21   D(4,5,6,1)              0.0            estimate D2E/DX2                !
 ! D22   D(7,5,6,1)            180.0            estimate D2E/DX2                !
 --------------------------------------------------------------------------------
 Trust Radius=3.00D-01 FncErr=1.00D-07 GrdErr=1.00D-06
 Number of steps in this run=     65 maximum allowed number of steps=    100.
 GradGradGradGradGradGradGradGradGradGradGradGradGradGradGradGradGradGrad

                          Input orientation:                          
 ---------------------------------------------------------------------
 Center     Atomic      Atomic             Coordinates (Angstroms)
 Number     Number       Type             X           Y           Z
 ---------------------------------------------------------------------
      1          6           0       -1.410404    0.084567    0.000000
      2          7           0       -0.432644   -0.862319    0.000000
      3          6           0        0.834720   -0.398686    0.000000
      4          6           0        1.133033    0.977715    0.000000
      5          6           0        0.039686    1.865413    0.000000
      6          7           0       -1.239308    1.434916    0.000000
      7          1           0        0.187683    2.960096    0.000000
      8         17           0       -3.070990   -0.498574    0.000000
      9         17           0        2.109202   -1.612480    0.000000
     10          6           0        2.586067    1.487903    0.000000
     11          1           0        3.089698    1.130143    0.873646
     12          1           0        3.089698    1.130143   -0.873646
     13          1           0        2.588383    2.557901    0.000000
 ---------------------------------------------------------------------
                    Distance matrix (angstroms):
                    1          2          3          4          5
     1  C    0.000000
     2  N    1.361105   0.000000
     3  C    2.296544   1.349507   0.000000
     4  C    2.695697   2.416003   1.408357   0.000000
     5  C    2.296557   2.768324   2.399631   1.408338   0.000000
     6  N    1.361145   2.434747   2.768337   2.415995   1.349501
     7  H    3.289764   3.872423   3.420537   2.196252   1.104642
     8  Cl   1.760000   2.663302   3.906987   4.455697   3.907012
     9  Cl   3.907377   2.650231   1.760000   2.768035   4.047053
    10  C    4.235697   3.825724   2.574186   1.540000   2.574212
    11  H    4.701851   4.140056   2.861032   2.148263   3.256756
    12  H    4.701851   4.140056   2.861032   2.148263   3.256756
    13  H    4.701881   4.563388   3.437549   2.148263   2.641098
                    6          7          8          9         10
     6  N    0.000000
     7  H    2.088654   0.000000
     8  Cl   2.663352   4.751983   0.000000
     9  Cl   4.527598   4.959908   5.298602   0.000000
    10  C    3.825741   2.814178   5.995697   3.136842   0.000000
    11  H    4.426786   3.540294   6.431956   3.040824   1.069998
    12  H    4.426786   3.540294   6.431956   3.040824   1.069998
    13  H    3.989024   2.434158   6.431994   4.197820   1.070000
                   11         12         13
    11  H    0.000000
    12  H    1.747293   0.000000
    13  H    1.747303   1.747303   0.000000
 Stoichiometry    C5H4Cl2N2
 Framework group  CS[SG(C5H2Cl2N2),X(H2)]
 Deg. of freedom    22
 Full point group                 CS      NOp   2
 Largest Abelian subgroup         CS      NOp   2
 Largest concise Abelian subgroup CS      NOp   2
                         Standard orientation:                         
 ---------------------------------------------------------------------
 Center     Atomic      Atomic             Coordinates (Angstroms)
 Number     Number       Type             X           Y           Z
 ---------------------------------------------------------------------
      1          6           0        0.531562   -1.309134    0.000000
      2          7           0        0.964585   -0.018747    0.000000
      3          6           0        0.000000    0.925045    0.000000
      4          6           0       -1.370574    0.601012    0.000000
      5          6           0       -1.700371   -0.768166    0.000000
      6          7           0       -0.760674   -1.736733    0.000000
      7          1           0       -2.751950   -1.106419    0.000000
      8         17           0        1.773462   -2.556246    0.000000
      9         17           0        0.545984    2.598216    0.000000
     10          6           0       -2.457191    1.692279    0.000000
     11          1           0       -2.351424    2.300926    0.873646
     12          1           0       -2.351424    2.300926   -0.873646
     13          1           0       -3.423708    1.233210    0.000000
 ---------------------------------------------------------------------
 Rotational constants (GHZ):      2.1149104      0.7599641      0.5609794
 Standard basis: 6-311++G(2d,p) (5D, 7F)
 There are   220 symmetry adapted cartesian basis functions of A'  symmetry.
 There are    85 symmetry adapted cartesian basis functions of A"  symmetry.
 There are   202 symmetry adapted basis functions of A'  symmetry.
 There are    85 symmetry adapted basis functions of A"  symmetry.
   287 basis functions,   448 primitive gaussians,   305 cartesian basis functions
    41 alpha electrons       41 beta electrons
       nuclear repulsion energy       554.7204222427 Hartrees.
 NAtoms=   13 NActive=   13 NUniq=   12 SFac= 1.17D+00 NAtFMM=   60 NAOKFM=F Big=F
 Integral buffers will be    262144 words long.
 Raffenetti 2 integral format.
 Two-electron integral symmetry is turned on.
 One-electron integrals computed using PRISM.
 NBasis=   287 RedAO= T EigKep=  5.80D-06  NBF=   202    85
 NBsUse=   287 1.00D-06 EigRej= -1.00D+00 NBFU=   202    85
 ExpMin= 3.60D-02 ExpMax= 1.06D+05 ExpMxC= 3.62D+03 IAcc=3 IRadAn=         5 AccDes= 0.00D+00
 Harris functional with IExCor=  402 and IRadAn=       5 diagonalized for initial guess.
 HarFok:  IExCor=  402 AccDes= 0.00D+00 IRadAn=         5 IDoV= 1 UseB2=F ITyADJ=14
 ICtDFT=  3500011 ScaDFX=  1.000000  1.000000  1.000000  1.000000
 FoFCou: FMM=F IPFlag=           0 FMFlag=      100000 FMFlg1=           0
         NFxFlg=           0 DoJE=T BraDBF=F KetDBF=T FulRan=T
         wScrn=  0.000000 ICntrl=     500 IOpCl=  0 I1Cent=   200000004 NGrid=           0
         NMat0=    1 NMatS0=      1 NMatT0=    0 NMatD0=    1 NMtDS0=    0 NMtDT0=    0
 Petite list used in FoFCou.
 Initial guess orbital symmetries:
       Occupied  (A') (A') (A') (A') (A') (A') (A') (A') (A') (A')
                 (A') (A') (A') (A') (A") (A") (A') (A') (A') (A')
                 (A') (A') (A') (A') (A') (A') (A') (A") (A') (A')
                 (A") (A') (A') (A") (A') (A") (A') (A') (A") (A')
                 (A")
       Virtual   (A") (A") (A') (A') (A') (A") (A') (A') (A") (A')
                 (A') (A') (A") (A') (A") (A') (A') (A') (A") (A')
                 (A') (A') (A') (A") (A") (A') (A') (A") (A') (A")
                 (A') (A') (A') (A") (A') (A') (A') (A') (A") (A')
                 (A') (A') (A') (A") (A') (A') (A') (A') (A') (A')
                 (A') (A') (A') (A') (A") (A') (A') (A") (A') (A")
                 (A') (A") (A') (A') (A") (A") (A') (A") (A') (A')
                 (A") (A') (A') (A") (A") (A') (A") (A') (A') (A')
                 (A") (A') (A") (A') (A") (A') (A') (A') (A') (A")
                 (A') (A') (A") (A') (A') (A') (A") (A') (A") (A')
                 (A') (A') (A') (A') (A") (A') (A') (A") (A") (A')
                 (A") (A') (A') (A') (A') (A') (A') (A") (A') (A')
                 (A") (A') (A') (A') (A") (A") (A') (A') (A") (A')
                 (A') (A') (A") (A') (A") (A') (A") (A') (A") (A')
                 (A') (A') (A') (A') (A') (A") (A') (A') (A") (A")
                 (A") (A') (A") (A') (A") (A') (A') (A') (A') (A')
                 (A") (A") (A') (A') (A') (A") (A') (A') (A') (A")
                 (A") (A") (A') (A') (A') (A") (A') (A') (A") (A')
                 (A") (A') (A") (A') (A') (A") (A') (A") (A') (A")
                 (A") (A') (A') (A') (A') (A") (A') (A') (A') (A')
                 (A") (A") (A') (A') (A') (A") (A') (A") (A') (A')
                 (A') (A") (A') (A') (A') (A') (A') (A") (A") (A")
                 (A') (A') (A") (A') (A') (A') (A') (A') (A') (A')
                 (A') (A') (A') (A') (A') (A') (A") (A") (A') (A')
                 (A') (A') (A') (A') (A') (A')
 The electronic state of the initial guess is 1-A'.
 Requested convergence on RMS density matrix=1.00D-08 within 128 cycles.
 Requested convergence on MAX density matrix=1.00D-06.
 Requested convergence on             energy=1.00D-06.
 No special actions if energy rises.
 SCF Done:  E(RB3LYP) =  -1222.97657229     A.U. after   14 cycles
            NFock= 14  Conv=0.44D-08     -V/T= 2.0032

 **********************************************************************

            Population analysis using the SCF density.

 **********************************************************************

 Orbital symmetries:
       Occupied  (A') (A') (A') (A') (A') (A') (A') (A') (A') (A')
                 (A') (A') (A") (A') (A') (A") (A') (A') (A') (A')
                 (A') (A') (A') (A') (A') (A') (A') (A") (A') (A')
                 (A') (A") (A') (A") (A") (A') (A') (A') (A") (A')
                 (A")
       Virtual   (A") (A") (A') (A') (A') (A') (A') (A") (A') (A')
                 (A') (A") (A") (A') (A') (A") (A') (A") (A') (A')
                 (A') (A") (A') (A') (A") (A') (A') (A") (A') (A')
                 (A") (A") (A') (A') (A') (A') (A') (A") (A') (A')
                 (A') (A") (A') (A') (A') (A') (A') (A') (A') (A')
                 (A') (A') (A') (A') (A") (A') (A") (A') (A") (A')
                 (A") (A') (A") (A') (A") (A') (A") (A') (A') (A")
                 (A') (A') (A") (A') (A") (A') (A') (A") (A') (A')
                 (A") (A") (A') (A") (A') (A') (A') (A') (A') (A')
                 (A") (A') (A') (A') (A') (A") (A') (A") (A') (A')
                 (A") (A') (A') (A") (A') (A') (A') (A") (A") (A')
                 (A") (A') (A') (A') (A') (A') (A') (A") (A') (A')
                 (A") (A') (A') (A') (A") (A') (A") (A') (A") (A')
                 (A') (A') (A") (A') (A") (A') (A") (A') (A") (A')
                 (A') (A') (A') (A') (A') (A') (A") (A") (A") (A')
                 (A") (A') (A") (A") (A') (A') (A') (A') (A') (A')
                 (A") (A") (A') (A') (A') (A') (A") (A') (A') (A")
                 (A") (A') (A") (A') (A') (A") (A') (A') (A") (A")
                 (A') (A') (A") (A") (A') (A') (A') (A") (A") (A')
                 (A') (A") (A') (A") (A') (A') (A') (A') (A') (A")
                 (A') (A") (A') (A') (A') (A') (A") (A") (A') (A')
                 (A') (A") (A') (A') (A') (A') (A') (A") (A") (A")
                 (A') (A') (A") (A') (A') (A') (A') (A') (A') (A')
                 (A') (A') (A') (A') (A') (A') (A") (A") (A') (A')
                 (A') (A') (A') (A') (A') (A')
 The electronic state is 1-A'.
 Alpha  occ. eigenvalues -- -101.58233-101.56957 -14.36019 -14.35332 -10.32585
 Alpha  occ. eigenvalues --  -10.30937 -10.25844 -10.23444 -10.19511  -9.49634
 Alpha  occ. eigenvalues --   -9.48342  -7.26096  -7.25155  -7.25056  -7.24829
 Alpha  occ. eigenvalues --   -7.23857  -7.23749  -1.02132  -0.93401  -0.89082
 Alpha  occ. eigenvalues --   -0.85741  -0.81690  -0.72576  -0.67875  -0.64864
 Alpha  occ. eigenvalues --   -0.56416  -0.53330  -0.47849  -0.45864  -0.45610
 Alpha  occ. eigenvalues --   -0.44408  -0.44387  -0.42912  -0.39073  -0.35409
 Alpha  occ. eigenvalues --   -0.34491  -0.34349  -0.33227  -0.32337  -0.29044
 Alpha  occ. eigenvalues --   -0.28284
 Alpha virt. eigenvalues --   -0.08072  -0.06364  -0.01931  -0.01656   0.00587
 Alpha virt. eigenvalues --    0.01340   0.01552   0.02302   0.04133   0.04644
 Alpha virt. eigenvalues --    0.04938   0.05469   0.06284   0.07234   0.08368
 Alpha virt. eigenvalues --    0.08544   0.09150   0.09752   0.10268   0.10613
 Alpha virt. eigenvalues --    0.11554   0.11950   0.12103   0.12149   0.12288
 Alpha virt. eigenvalues --    0.13538   0.14390   0.14455   0.15322   0.16904
 Alpha virt. eigenvalues --    0.16905   0.18170   0.18372   0.18979   0.19507
 Alpha virt. eigenvalues --    0.20681   0.21181   0.21264   0.21472   0.22434
 Alpha virt. eigenvalues --    0.23437   0.24048   0.24599   0.24990   0.26115
 Alpha virt. eigenvalues --    0.28069   0.28306   0.29197   0.30398   0.31223
 Alpha virt. eigenvalues --    0.32028   0.32290   0.34185   0.35439   0.36752
 Alpha virt. eigenvalues --    0.39905   0.41610   0.41896   0.42632   0.43256
 Alpha virt. eigenvalues --    0.44763   0.44818   0.45856   0.45949   0.46184
 Alpha virt. eigenvalues --    0.46789   0.47706   0.48138   0.51991   0.52350
 Alpha virt. eigenvalues --    0.52643   0.55363   0.55403   0.56164   0.58008
 Alpha virt. eigenvalues --    0.58164   0.59782   0.61197   0.61886   0.64296
 Alpha virt. eigenvalues --    0.64775   0.66615   0.66731   0.68820   0.69729
 Alpha virt. eigenvalues --    0.71150   0.72933   0.73595   0.74976   0.76669
 Alpha virt. eigenvalues --    0.78401   0.80112   0.81316   0.82426   0.82935
 Alpha virt. eigenvalues --    0.83046   0.85577   0.86152   0.87857   0.88238
 Alpha virt. eigenvalues --    0.88380   0.89065   0.91568   0.94463   0.94761
 Alpha virt. eigenvalues --    0.95731   0.98000   0.98787   1.05243   1.06248
 Alpha virt. eigenvalues --    1.09490   1.10146   1.12858   1.15185   1.21363
 Alpha virt. eigenvalues --    1.23830   1.24949   1.25009   1.27894   1.29972
 Alpha virt. eigenvalues --    1.33511   1.34886   1.38670   1.39543   1.40134
 Alpha virt. eigenvalues --    1.42955   1.43475   1.46337   1.47946   1.48423
 Alpha virt. eigenvalues --    1.50944   1.59001   1.60635   1.70962   1.72898
 Alpha virt. eigenvalues --    1.77133   1.80673   1.85353   1.86194   1.91903
 Alpha virt. eigenvalues --    1.98584   1.99829   2.04453   2.05565   2.08403
 Alpha virt. eigenvalues --    2.18261   2.19234   2.24936   2.25917   2.25951
 Alpha virt. eigenvalues --    2.32254   2.35708   2.36156   2.37568   2.38849
 Alpha virt. eigenvalues --    2.39162   2.40641   2.40811   2.41098   2.44873
 Alpha virt. eigenvalues --    2.46687   2.48126   2.48902   2.51584   2.57959
 Alpha virt. eigenvalues --    2.61658   2.63342   2.65638   2.71441   2.75020
 Alpha virt. eigenvalues --    2.77533   2.79811   2.81411   2.82959   2.84701
 Alpha virt. eigenvalues --    2.92923   2.94486   3.07564   3.09996   3.12498
 Alpha virt. eigenvalues --    3.14169   3.18038   3.24548   3.28151   3.28362
 Alpha virt. eigenvalues --    3.29244   3.33056   3.33420   3.38027   3.38188
 Alpha virt. eigenvalues --    3.41731   3.42028   3.46179   3.46860   3.48290
 Alpha virt. eigenvalues --    3.50551   3.53495   3.57881   3.58836   3.61413
 Alpha virt. eigenvalues --    3.61691   3.64907   3.71263   3.78538   3.83113
 Alpha virt. eigenvalues --    3.87550   3.89968   3.93444   3.94817   4.02934
 Alpha virt. eigenvalues --    4.10878   4.24924   4.34137   4.38677   4.47199
 Alpha virt. eigenvalues --    4.61683   4.74890   4.89182   4.95392   5.02293
 Alpha virt. eigenvalues --    5.04053   5.08654   5.09131   5.12513   5.19325
 Alpha virt. eigenvalues --    5.34560   5.43196   5.60793   5.61088   9.81987
 Alpha virt. eigenvalues --    9.87650  23.66426  23.89977  23.94655  23.97969
 Alpha virt. eigenvalues --   24.19135  25.83565  25.86842  26.12640  26.24091
 Alpha virt. eigenvalues --   27.20346  27.46022  35.59250  35.64061 215.81872
 Alpha virt. eigenvalues --  215.87493
          Condensed to atoms (all electrons):
               1          2          3          4          5          6
     1  C    5.524742   0.376691  -0.491584   0.398851  -0.662384   0.300147
     2  N    0.376691   6.993098   0.336801  -0.097183   0.011965  -0.055777
     3  C   -0.491584   0.336801   7.484986  -1.102729  -0.583157   0.013566
     4  C    0.398851  -0.097183  -1.102729   7.071652  -0.635356   0.096420
     5  C   -0.662384   0.011965  -0.583157  -0.635356   7.687801   0.263533
     6  N    0.300147  -0.055777   0.013566   0.096420   0.263533   6.861397
     7  H    0.033643   0.003292  -0.021620  -0.024570   0.399755  -0.110826
     8  Cl   0.669995  -0.155325   0.000061  -0.047544  -0.030950  -0.151875
     9  Cl  -0.278058  -0.218880   0.640451  -0.308861   0.184100  -0.000504
    10  C    0.106174  -0.000292  -0.232603   0.310010  -0.451638   0.030219
    11  H    0.000368   0.000611   0.014582  -0.025862  -0.014735   0.000901
    12  H    0.000368   0.000611   0.014582  -0.025862  -0.014735   0.000901
    13  H    0.002579   0.002160   0.077053  -0.048883  -0.085676   0.001883
               7          8          9         10         11         12
     1  C    0.033643   0.669995  -0.278058   0.106174   0.000368   0.000368
     2  N    0.003292  -0.155325  -0.218880  -0.000292   0.000611   0.000611
     3  C   -0.021620   0.000061   0.640451  -0.232603   0.014582   0.014582
     4  C   -0.024570  -0.047544  -0.308861   0.310010  -0.025862  -0.025862
     5  C    0.399755  -0.030950   0.184100  -0.451638  -0.014735  -0.014735
     6  N   -0.110826  -0.151875  -0.000504   0.030219   0.000901   0.000901
     7  H    0.556957   0.004268  -0.001125  -0.031382  -0.001704  -0.001704
     8  Cl   0.004268  16.517571  -0.010593  -0.006893   0.000434   0.000434
     9  Cl  -0.001125  -0.010593  16.883665  -0.083504   0.034131   0.034131
    10  C   -0.031382  -0.006893  -0.083504   5.995197   0.350235   0.350235
    11  H   -0.001704   0.000434   0.034131   0.350235   0.562341  -0.044925
    12  H   -0.001704   0.000434   0.034131   0.350235  -0.044925   0.562341
    13  H    0.007884   0.000071  -0.003672   0.388743  -0.020797  -0.020797
              13
     1  C    0.002579
     2  N    0.002160
     3  C    0.077053
     4  C   -0.048883
     5  C   -0.085676
     6  N    0.001883
     7  H    0.007884
     8  Cl   0.000071
     9  Cl  -0.003672
    10  C    0.388743
    11  H   -0.020797
    12  H   -0.020797
    13  H    0.581692
 Mulliken charges:
               1
     1  C    0.018468
     2  N   -0.197773
     3  C   -0.150390
     4  C    0.439915
     5  C   -0.068524
     6  N   -0.249985
     7  H    0.187132
     8  Cl   0.210345
     9  Cl   0.128716
    10  C   -0.724500
    11  H    0.144417
    12  H    0.144417
    13  H    0.117760
 Sum of Mulliken charges =   0.00000
 Mulliken charges with hydrogens summed into heavy atoms:
               1
     1  C    0.018468
     2  N   -0.197773
     3  C   -0.150390
     4  C    0.439915
     5  C    0.118609
     6  N   -0.249985
     8  Cl   0.210345
     9  Cl   0.128716
    10  C   -0.317905
 Electronic spatial extent (au):  <R**2>=           1810.5128
 Charge=              0.0000 electrons
 Dipole moment (field-independent basis, Debye):
    X=             -3.3522    Y=              1.8619    Z=              0.0000  Tot=              3.8345
 Quadrupole moment (field-independent basis, Debye-Ang):
   XX=            -61.4103   YY=            -69.0847   ZZ=            -65.8189
   XY=             -2.7192   XZ=              0.0000   YZ=              0.0000
 Traceless Quadrupole moment (field-independent basis, Debye-Ang):
   XX=              4.0277   YY=             -3.6468   ZZ=             -0.3809
   XY=             -2.7192   XZ=              0.0000   YZ=              0.0000
 Octapole moment (field-independent basis, Debye-Ang**2):
  XXX=            -14.3100  YYY=             19.6424  ZZZ=              0.0000  XYY=              7.8971
  XXY=             -1.1611  XXZ=              0.0000  XZZ=              2.9943  YZZ=              1.4630
  YYZ=              0.0000  XYZ=              0.0000
 Hexadecapole moment (field-independent basis, Debye-Ang**3):
 XXXX=           -804.9876 YYYY=          -1436.2966 ZZZZ=            -78.9055 XXXY=            183.8925
 XXXZ=              0.0000 YYYX=            168.2444 YYYZ=              0.0000 ZZZX=              0.0000
 ZZZY=              0.0000 XXYY=           -358.8948 XXZZ=           -159.4723 YYZZ=           -254.2404
 XXYZ=              0.0000 YYXZ=              0.0000 ZZXY=             61.0054
 N-N= 5.547204222427D+02 E-N=-4.000149388972D+03  KE= 1.219135409221D+03
 Symmetry A'   KE= 1.117745381171D+03
 Symmetry A"   KE= 1.013900280502D+02
 Calling FoFJK, ICntrl=      2127 FMM=F ISym2X=1 I1Cent= 0 IOpClX= 0 NMat=1 NMatS=1 NMatT=0.
 ***** Axes restored to original set *****
 -------------------------------------------------------------------
 Center     Atomic                   Forces (Hartrees/Bohr)
 Number     Number              X              Y              Z
 -------------------------------------------------------------------
      1        6           0.028321932    0.011776489    0.000000000
      2        7          -0.001741527    0.026668116    0.000000000
      3        6          -0.031534437    0.006867112    0.000000000
      4        6           0.018152158    0.005609916    0.000000000
      5        6          -0.006834898   -0.017823683    0.000000000
      6        7           0.004366668   -0.026394079    0.000000000
      7        1          -0.000836248   -0.013051184    0.000000000
      8       17           0.011707310    0.003483449    0.000000000
      9       17          -0.006564841    0.006814595    0.000000000
     10        6          -0.034531884   -0.008843800    0.000000000
     11        1           0.009062366   -0.004338662    0.010334126
     12        1           0.009062366   -0.004338662   -0.010334126
     13        1           0.001371036    0.013570392    0.000000000
 -------------------------------------------------------------------
 Cartesian Forces:  Max     0.034531884 RMS     0.012829909

 GradGradGradGradGradGradGradGradGradGradGradGradGradGradGradGradGradGrad
 Berny optimization.
 FormGI is forming the generalized inverse of G from B-inverse, IUseBI=4.
 Internal  Forces:  Max     0.037559228 RMS     0.010700728
 Search for a local minimum.
 Step number   1 out of a maximum of   65
 All quantities printed in internal units (Hartrees-Bohrs-Radians)
 Mixed Optimization -- RFO/linear search
 Second derivative matrix not updated -- first step.
 ITU=  0
     Eigenvalues ---    0.00237   0.01240   0.02004   0.02081   0.02107
     Eigenvalues ---    0.02206   0.02236   0.02253   0.07243   0.07243
     Eigenvalues ---    0.16000   0.16000   0.16000   0.16000   0.23297
     Eigenvalues ---    0.25000   0.25000   0.25000   0.25000   0.25000
     Eigenvalues ---    0.28519   0.29539   0.29539   0.33174   0.37230
     Eigenvalues ---    0.37230   0.37230   0.42056   0.43484   0.50635
     Eigenvalues ---    0.51072   0.53462   0.55127
 RFO step:  Lambda=-1.43144246D-02 EMin= 2.36824203D-03
 Linear search not attempted -- first point.
 Iteration  1 RMS(Cart)=  0.03331832 RMS(Int)=  0.00027894
 Iteration  2 RMS(Cart)=  0.00032714 RMS(Int)=  0.00002668
 Iteration  3 RMS(Cart)=  0.00000007 RMS(Int)=  0.00002668
 ClnCor:  largest displacement from symmetrization is 7.55D-10 for atom    12.
 Variable       Old X    -DE/DX   Delta X   Delta X   Delta X     New X
                                 (Linear)    (Quad)   (Total)
    R1        2.57212  -0.03611   0.00000  -0.06886  -0.06886   2.50326
    R2        2.57219  -0.03756   0.00000  -0.07130  -0.07131   2.50088
    R3        3.32592  -0.01220   0.00000  -0.03939  -0.03939   3.28653
    R4        2.55020  -0.02806   0.00000  -0.04986  -0.04984   2.50036
    R5        2.66141  -0.01647   0.00000  -0.03390  -0.03389   2.62752
    R6        3.32592  -0.00945   0.00000  -0.03052  -0.03052   3.29539
    R7        2.66137  -0.01855   0.00000  -0.03810  -0.03810   2.62327
    R8        2.91018  -0.01550   0.00000  -0.05174  -0.05174   2.85844
    R9        2.55019  -0.01721   0.00000  -0.03013  -0.03015   2.52004
   R10        2.08747  -0.01305   0.00000  -0.03770  -0.03770   2.04977
   R11        2.02200   0.01415   0.00000   0.03661   0.03661   2.05861
   R12        2.02200   0.01415   0.00000   0.03661   0.03661   2.05861
   R13        2.02201   0.01357   0.00000   0.03511   0.03511   2.05712
    A1        2.21412   0.00760   0.00000   0.02108   0.02108   2.23520
    A2        2.03452  -0.00479   0.00000  -0.01427  -0.01427   2.02025
    A3        2.03454  -0.00282   0.00000  -0.00681  -0.00681   2.02773
    A4        2.02153  -0.00134   0.00000  -0.01249  -0.01245   2.00908
    A5        2.13493   0.00727   0.00000   0.03059   0.03061   2.16554
    A6        2.02988  -0.00296   0.00000  -0.01273  -0.01274   2.01713
    A7        2.11838  -0.00431   0.00000  -0.01786  -0.01787   2.10051
    A8        2.03932  -0.01547   0.00000  -0.05016  -0.05017   1.98916
    A9        2.12190   0.01020   0.00000   0.03441   0.03441   2.15631
   A10        2.12196   0.00527   0.00000   0.01575   0.01575   2.13771
   A11        2.13495   0.00618   0.00000   0.03180   0.03178   2.16673
   A12        2.11838  -0.00405   0.00000  -0.02141  -0.02140   2.09698
   A13        2.02986  -0.00213   0.00000  -0.01039  -0.01038   2.01948
   A14        2.02151  -0.00424   0.00000  -0.02082  -0.02085   2.00066
   A15        1.91064   0.00271   0.00000   0.01500   0.01493   1.92556
   A16        1.91064   0.00271   0.00000   0.01500   0.01493   1.92556
   A17        1.91063   0.00107   0.00000   0.00724   0.00717   1.91780
   A18        1.91062  -0.00320   0.00000  -0.02061  -0.02069   1.88993
   A19        1.91064  -0.00165   0.00000  -0.00832  -0.00839   1.90224
   A20        1.91064  -0.00165   0.00000  -0.00832  -0.00839   1.90224
    D1        0.00000   0.00000   0.00000   0.00000   0.00000   0.00000
    D2        3.14159   0.00000   0.00000   0.00000   0.00000   3.14159
    D3        0.00000   0.00000   0.00000   0.00000   0.00000   0.00000
    D4        3.14159   0.00000   0.00000   0.00000   0.00000   3.14159
    D5        0.00000   0.00000   0.00000   0.00000   0.00000   0.00000
    D6        3.14159   0.00000   0.00000   0.00000   0.00000   3.14159
    D7        0.00000   0.00000   0.00000   0.00000   0.00000   0.00000
    D8        3.14159   0.00000   0.00000   0.00000   0.00000   3.14159
    D9        3.14159   0.00000   0.00000   0.00000   0.00000   3.14159
   D10        0.00000   0.00000   0.00000   0.00000   0.00000   0.00000
   D11        0.00000   0.00000   0.00000   0.00000   0.00000   0.00000
   D12        3.14159   0.00000   0.00000   0.00000   0.00000   3.14159
   D13        3.14159   0.00000   0.00000   0.00000   0.00000   3.14159
   D14        0.00000   0.00000   0.00000   0.00000   0.00000   0.00000
   D15       -1.04719   0.00030   0.00000   0.00344   0.00344  -1.04376
   D16        1.04719  -0.00030   0.00000  -0.00344  -0.00344   1.04376
   D17        3.14159   0.00000   0.00000   0.00000   0.00000   3.14159
   D18        2.09440   0.00030   0.00000   0.00344   0.00344   2.09784
   D19       -2.09440  -0.00030   0.00000  -0.00344  -0.00344  -2.09784
   D20        0.00000   0.00000   0.00000   0.00000   0.00000   0.00000
   D21        0.00000   0.00000   0.00000   0.00000   0.00000   0.00000
   D22        3.14159   0.00000   0.00000   0.00000   0.00000   3.14159
         Item               Value     Threshold  Converged?
 Maximum Force            0.037559     0.000450     NO 
 RMS     Force            0.010701     0.000300     NO 
 Maximum Displacement     0.109980     0.001800     NO 
 RMS     Displacement     0.033390     0.001200     NO 
 Predicted change in Energy=-7.412455D-03
 GradGradGradGradGradGradGradGradGradGradGradGradGradGradGradGradGradGrad

                          Input orientation:                          
 ---------------------------------------------------------------------
 Center     Atomic      Atomic             Coordinates (Angstroms)
 Number     Number       Type             X           Y           Z
 ---------------------------------------------------------------------
      1          6           0       -1.376525    0.099365    0.000000
      2          7           0       -0.434314   -0.831755    0.000000
      3          6           0        0.807215   -0.374283    0.000000
      4          6           0        1.140031    0.975720    0.000000
      5          6           0        0.043446    1.826912    0.000000
      6          7           0       -1.224573    1.414024    0.000000
      7          1           0        0.188241    2.901897    0.000000
      8         17           0       -3.015038   -0.483671    0.000000
      9         17           0        2.057415   -1.590015    0.000000
     10          6           0        2.564131    1.485585    0.000000
     11          1           0        3.093592    1.129400    0.882911
     12          1           0        3.093592    1.129400   -0.882911
     13          1           0        2.567609    2.574158    0.000000
 ---------------------------------------------------------------------
                    Distance matrix (angstroms):
                    1          2          3          4          5
     1  C    0.000000
     2  N    1.324668   0.000000
     3  C    2.234516   1.323131   0.000000
     4  C    2.664780   2.396984   1.390423   0.000000
     5  C    2.236232   2.701252   2.329937   1.388174   0.000000
     6  N    1.323411   2.380763   2.706697   2.404884   1.333548
     7  H    3.209779   3.785199   3.334139   2.148502   1.084693
     8  Cl   1.739154   2.604092   3.823818   4.403910   3.833160
     9  Cl   3.827002   2.604549   1.743847   2.724811   3.966291
    10  C    4.177364   3.789557   2.558488   1.512621   2.543690
    11  H    4.671450   4.131801   2.875432   2.149314   3.251069
    12  H    4.671450   4.131801   2.875432   2.149314   3.251069
    13  H    4.656264   4.540021   3.433991   2.143124   2.632447
                    6          7          8          9         10
     6  N    0.000000
     7  H    2.051783   0.000000
     8  Cl   2.609025   4.660802   0.000000
     9  Cl   4.449236   4.865294   5.191702   0.000000
    10  C    3.789380   2.766006   5.916511   3.117063   0.000000
    11  H    4.416684   3.516012   6.379411   3.041120   1.089371
    12  H    4.416684   3.516012   6.379411   3.041120   1.089371
    13  H    3.965673   2.401833   6.365239   4.195312   1.088578
                   11         12         13
    11  H    0.000000
    12  H    1.765821   0.000000
    13  H    1.772997   1.772997   0.000000
 Stoichiometry    C5H4Cl2N2
 Framework group  CS[SG(C5H2Cl2N2),X(H2)]
 Deg. of freedom    22
 Full point group                 CS      NOp   2
 Largest Abelian subgroup         CS      NOp   2
 Largest concise Abelian subgroup CS      NOp   2
                         Standard orientation:                         
 ---------------------------------------------------------------------
 Center     Atomic      Atomic             Coordinates (Angstroms)
 Number     Number       Type             X           Y           Z
 ---------------------------------------------------------------------
      1          6           0        0.507648   -1.284354    0.000000
      2          7           0        0.945288   -0.034068    0.000000
      3          6           0        0.000000    0.891733    0.000000
      4          6           0       -1.362412    0.614047    0.000000
      5          6           0       -1.661689   -0.741483    0.000000
      6          7           0       -0.745336   -1.710320    0.000000
      7          1           0       -2.695046   -1.071227    0.000000
      8         17           0        1.736479   -2.515058    0.000000
      9         17           0        0.562848    2.542250    0.000000
     10          6           0       -2.433262    1.682364    0.000000
     11          1           0       -2.338272    2.313374    0.882911
     12          1           0       -2.338272    2.313374   -0.882911
     13          1           0       -3.418350    1.219109    0.000000
 ---------------------------------------------------------------------
 Rotational constants (GHZ):      2.1744387      0.7870976      0.5799922
 Standard basis: 6-311++G(2d,p) (5D, 7F)
 There are   220 symmetry adapted cartesian basis functions of A'  symmetry.
 There are    85 symmetry adapted cartesian basis functions of A"  symmetry.
 There are   202 symmetry adapted basis functions of A'  symmetry.
 There are    85 symmetry adapted basis functions of A"  symmetry.
   287 basis functions,   448 primitive gaussians,   305 cartesian basis functions
    41 alpha electrons       41 beta electrons
       nuclear repulsion energy       563.5096176276 Hartrees.
 NAtoms=   13 NActive=   13 NUniq=   12 SFac= 1.17D+00 NAtFMM=   60 NAOKFM=F Big=F
 Integral buffers will be    262144 words long.
 Raffenetti 2 integral format.
 Two-electron integral symmetry is turned on.
 One-electron integrals computed using PRISM.
 NBasis=   287 RedAO= T EigKep=  4.67D-06  NBF=   202    85
 NBsUse=   287 1.00D-06 EigRej= -1.00D+00 NBFU=   202    85
 Initial guess from the checkpoint file:  "D:\mindmap\gaussian\calculate\opt_freq\QM1\6-311++g.chk"
 B after Tr=     0.000000    0.000000    0.000000
         Rot=    0.999997    0.000000    0.000000    0.002447 Ang=   0.28 deg.
 Initial guess orbital symmetries:
       Occupied  (A') (A') (A') (A') (A') (A') (A') (A') (A') (A')
                 (A') (A') (A") (A') (A') (A") (A') (A') (A') (A')
                 (A') (A') (A') (A') (A') (A') (A') (A") (A') (A')
                 (A') (A") (A') (A") (A") (A') (A') (A') (A") (A')
                 (A")
       Virtual   (A') (A') (A') (A') (A') (A') (A') (A') (A') (A')
                 (A') (A') (A') (A') (A') (A') (A') (A') (A') (A')
                 (A') (A') (A') (A') (A') (A') (A') (A') (A') (A')
                 (A') (A') (A') (A') (A') (A') (A') (A') (A') (A')
                 (A') (A') (A') (A') (A') (A') (A') (A') (A') (A')
                 (A') (A') (A') (A') (A') (A') (A') (A') (A') (A')
                 (A') (A') (A') (A') (A') (A') (A') (A') (A') (A')
                 (A') (A') (A') (A') (A') (A') (A') (A') (A') (A')
                 (A') (A') (A') (A') (A') (A') (A') (A') (A') (A')
                 (A') (A') (A') (A') (A') (A') (A') (A') (A') (A')
                 (A') (A') (A') (A') (A') (A') (A') (A') (A') (A')
                 (A') (A') (A') (A') (A') (A') (A') (A') (A') (A')
                 (A') (A') (A') (A') (A') (A') (A') (A') (A') (A')
                 (A') (A') (A') (A') (A') (A') (A') (A') (A') (A')
                 (A') (A') (A') (A') (A') (A') (A') (A') (A') (A')
                 (A') (A') (A') (A') (A') (A') (A') (A') (A') (A')
                 (A') (A') (A') (A') (A') (A') (A') (A') (A') (A")
                 (A") (A") (A") (A") (A") (A") (A") (A") (A") (A")
                 (A") (A") (A") (A") (A") (A") (A") (A") (A") (A")
                 (A") (A") (A") (A") (A") (A") (A") (A") (A") (A")
                 (A") (A") (A") (A") (A") (A") (A") (A") (A") (A")
                 (A") (A") (A") (A") (A") (A") (A") (A") (A") (A")
                 (A") (A") (A") (A") (A") (A") (A") (A") (A") (A")
                 (A") (A") (A") (A") (A") (A") (A") (A") (A") (A")
                 (A") (A") (A") (A") (A") (A")
 ExpMin= 3.60D-02 ExpMax= 1.06D+05 ExpMxC= 3.62D+03 IAcc=3 IRadAn=         5 AccDes= 0.00D+00
 Harris functional with IExCor=  402 and IRadAn=       5 diagonalized for initial guess.
 HarFok:  IExCor=  402 AccDes= 0.00D+00 IRadAn=         5 IDoV= 1 UseB2=F ITyADJ=14
 ICtDFT=  3500011 ScaDFX=  1.000000  1.000000  1.000000  1.000000
 FoFCou: FMM=F IPFlag=           0 FMFlag=      100000 FMFlg1=           0
         NFxFlg=           0 DoJE=T BraDBF=F KetDBF=T FulRan=T
         wScrn=  0.000000 ICntrl=     500 IOpCl=  0 I1Cent=   200000004 NGrid=           0
         NMat0=    1 NMatS0=      1 NMatT0=    0 NMatD0=    1 NMtDS0=    0 NMtDT0=    0
 Petite list used in FoFCou.
 Requested convergence on RMS density matrix=1.00D-08 within 128 cycles.
 Requested convergence on MAX density matrix=1.00D-06.
 Requested convergence on             energy=1.00D-06.
 No special actions if energy rises.
