 Entering Link 1 = C:\G09W\l1.exe PID=      3204.
  
 Copyright (c) 1988,1990,1992,1993,1995,1998,2003,2009,2013,
            Gaussian, Inc.  All Rights Reserved.
  
 This is part of the Gaussian(R) 09 program.  It is based on
 the Gaussian(R) 03 system (copyright 2003, Gaussian, Inc.),
 the Gaussian(R) 98 system (copyright 1998, Gaussian, Inc.),
 the Gaussian(R) 94 system (copyright 1995, Gaussian, Inc.),
 the Gaussian 92(TM) system (copyright 1992, Gaussian, Inc.),
 the Gaussian 90(TM) system (copyright 1990, Gaussian, Inc.),
 the Gaussian 88(TM) system (copyright 1988, Gaussian, Inc.),
 the Gaussian 86(TM) system (copyright 1986, Carnegie Mellon
 University), and the Gaussian 82(TM) system (copyright 1983,
 Carnegie Mellon University). Gaussian is a federally registered
 trademark of Gaussian, Inc.
  
 This software contains proprietary and confidential information,
 including trade secrets, belonging to Gaussian, Inc.
  
 This software is provided under written license and may be
 used, copied, transmitted, or stored only in accord with that
 written license.
  
 The following legend is applicable only to US Government
 contracts under FAR:
  
                    RESTRICTED RIGHTS LEGEND
  
 Use, reproduction and disclosure by the US Government is
 subject to restrictions as set forth in subparagraphs (a)
 and (c) of the Commercial Computer Software - Restricted
 Rights clause in FAR 52.227-19.
  
 Gaussian, Inc.
 340 Quinnipiac St., Bldg. 40, Wallingford CT 06492
  
  
 ---------------------------------------------------------------
 Warning -- This program may not be used in any manner that
 competes with the business of Gaussian, Inc. or will provide
 assistance to any competitor of Gaussian, Inc.  The licensee
 of this program is prohibited from giving any competitor of
 Gaussian, Inc. access to this program.  By using this program,
 the user acknowledges that Gaussian, Inc. is engaged in the
 business of creating and licensing software in the field of
 computational chemistry and represents and warrants to the
 licensee that it is not a competitor of Gaussian, Inc. and that
 it will not use this program in any manner prohibited above.
 ---------------------------------------------------------------
  

 Cite this work as:
 Gaussian 09, Revision D.01,
 M. J. Frisch, G. W. Trucks, H. B. Schlegel, G. E. Scuseria, 
 M. A. Robb, J. R. Cheeseman, G. Scalmani, V. Barone, B. Mennucci, 
 G. A. Petersson, H. Nakatsuji, M. Caricato, X. Li, H. P. Hratchian, 
 A. F. Izmaylov, J. Bloino, G. Zheng, J. L. Sonnenberg, M. Hada, 
 M. Ehara, K. Toyota, R. Fukuda, J. Hasegawa, M. Ishida, T. Nakajima, 
 Y. Honda, O. Kitao, H. Nakai, T. Vreven, J. A. Montgomery, Jr., 
 J. E. Peralta, F. Ogliaro, M. Bearpark, J. J. Heyd, E. Brothers, 
 K. N. Kudin, V. N. Staroverov, T. Keith, R. Kobayashi, J. Normand, 
 K. Raghavachari, A. Rendell, J. C. Burant, S. S. Iyengar, J. Tomasi, 
 M. Cossi, N. Rega, J. M. Millam, M. Klene, J. E. Knox, J. B. Cross, 
 V. Bakken, C. Adamo, J. Jaramillo, R. Gomperts, R. E. Stratmann, 
 O. Yazyev, A. J. Austin, R. Cammi, C. Pomelli, J. W. Ochterski, 
 R. L. Martin, K. Morokuma, V. G. Zakrzewski, G. A. Voth, 
 P. Salvador, J. J. Dannenberg, S. Dapprich, A. D. Daniels, 
 O. Farkas, J. B. Foresman, J. V. Ortiz, J. Cioslowski, 
 and D. J. Fox, Gaussian, Inc., Wallingford CT, 2013.
 
 ******************************************
 Gaussian 09:  IA32W-G09RevD.01 24-Apr-2013
                01-Apr-2022 
 ******************************************
 %nprocshared=4
 Will use up to    4 processors via shared memory.
 %mem=1GB
 %chk=D:\mindmap\gaussian\calculate\opt_freq\QM1\nbo.chk
 -----------------------------------
 # opt freq b3lyp/6-311g pop=savenbo
 -----------------------------------
 1/14=-1,18=20,19=15,26=3,38=1/1,3;
 2/9=110,12=2,17=6,18=5,40=1/2;
 3/5=4,6=6,11=2,16=1,25=1,30=1,71=1,74=-5/1,2,3;
 4//1;
 5/5=2,38=5/2;
 6/7=2,8=2,9=2,10=2,28=1,40=1,73=1/1,7;
 7//1,2,3,16;
 1/14=-1,18=20,19=15,26=3/3(2);
 2/9=110/2;
 99//99;
 2/9=110/2;
 3/5=4,6=6,11=2,16=1,25=1,30=1,71=1,74=-5/1,2,3;
 4/5=5,16=3,69=1/1;
 5/5=2,38=5/2;
 7//1,2,3,16;
 1/14=-1,18=20,19=15,26=3/3(-5);
 2/9=110/2;
 6/7=2,8=2,9=2,10=2,19=2,28=1,40=1,73=1/1,7;
 99/9=1/99;
 ----------------------
 Energy Calculation(GC)
 ----------------------
 Symbolic Z-matrix:
 Charge =  0 Multiplicity = 1
 C                    -1.4104    0.08457   0. 
 N                    -0.43264  -0.86232   0. 
 C                     0.83472  -0.39869   0. 
 C                     1.13303   0.97771   0. 
 C                     0.03969   1.86541   0. 
 N                    -1.23931   1.43492   0. 
 H                     0.18768   2.9601    0. 
 Cl                   -3.07099  -0.49857   0. 
 Cl                    2.1092   -1.61248   0. 
 C                     2.58607   1.4879    0. 
 H                     3.0897    1.13014   0.87365 
 H                     3.0897    1.13014  -0.87365 
 H                     2.58838   2.5579    0. 
 

 GradGradGradGradGradGradGradGradGradGradGradGradGradGradGradGradGradGrad
 Berny optimization.
 Initialization pass.
                           ----------------------------
                           !    Initial Parameters    !
                           ! (Angstroms and Degrees)  !
 --------------------------                            --------------------------
 ! Name  Definition              Value          Derivative Info.                !
 --------------------------------------------------------------------------------
 ! R1    R(1,2)                  1.3611         estimate D2E/DX2                !
 ! R2    R(1,6)                  1.3611         estimate D2E/DX2                !
 ! R3    R(1,8)                  1.76           estimate D2E/DX2                !
 ! R4    R(2,3)                  1.3495         estimate D2E/DX2                !
 ! R5    R(3,4)                  1.4084         estimate D2E/DX2                !
 ! R6    R(3,9)                  1.76           estimate D2E/DX2                !
 ! R7    R(4,5)                  1.4083         estimate D2E/DX2                !
 ! R8    R(4,10)                 1.54           estimate D2E/DX2                !
 ! R9    R(5,6)                  1.3495         estimate D2E/DX2                !
 ! R10   R(5,7)                  1.1046         estimate D2E/DX2                !
 ! R11   R(10,11)                1.07           estimate D2E/DX2                !
 ! R12   R(10,12)                1.07           estimate D2E/DX2                !
 ! R13   R(10,13)                1.07           estimate D2E/DX2                !
 ! A1    A(2,1,6)              126.8598         estimate D2E/DX2                !
 ! A2    A(2,1,8)              116.5695         estimate D2E/DX2                !
 ! A3    A(6,1,8)              116.5707         estimate D2E/DX2                !
 ! A4    A(1,2,3)              115.8253         estimate D2E/DX2                !
 ! A5    A(2,3,4)              122.3225         estimate D2E/DX2                !
 ! A6    A(2,3,9)              116.3034         estimate D2E/DX2                !
 ! A7    A(4,3,9)              121.3741         estimate D2E/DX2                !
 ! A8    A(3,4,5)              116.8447         estimate D2E/DX2                !
 ! A9    A(3,4,10)             121.576          estimate D2E/DX2                !
 ! A10   A(5,4,10)             121.5794         estimate D2E/DX2                !
 ! A11   A(4,5,6)              122.3238         estimate D2E/DX2                !
 ! A12   A(4,5,7)              121.374          estimate D2E/DX2                !
 ! A13   A(6,5,7)              116.3023         estimate D2E/DX2                !
 ! A14   A(1,6,5)              115.824          estimate D2E/DX2                !
 ! A15   A(4,10,11)            109.4713         estimate D2E/DX2                !
 ! A16   A(4,10,12)            109.4713         estimate D2E/DX2                !
 ! A17   A(4,10,13)            109.4712         estimate D2E/DX2                !
 ! A18   A(11,10,12)           109.4706         estimate D2E/DX2                !
 ! A19   A(11,10,13)           109.4714         estimate D2E/DX2                !
 ! A20   A(12,10,13)           109.4714         estimate D2E/DX2                !
 ! D1    D(6,1,2,3)              0.0            estimate D2E/DX2                !
 ! D2    D(8,1,2,3)            180.0            estimate D2E/DX2                !
 ! D3    D(2,1,6,5)              0.0            estimate D2E/DX2                !
 ! D4    D(8,1,6,5)            180.0            estimate D2E/DX2                !
 ! D5    D(1,2,3,4)              0.0            estimate D2E/DX2                !
 ! D6    D(1,2,3,9)            180.0            estimate D2E/DX2                !
 ! D7    D(2,3,4,5)              0.0            estimate D2E/DX2                !
 ! D8    D(2,3,4,10)           180.0            estimate D2E/DX2                !
 ! D9    D(9,3,4,5)            180.0            estimate D2E/DX2                !
 ! D10   D(9,3,4,10)             0.0            estimate D2E/DX2                !
 ! D11   D(3,4,5,6)              0.0            estimate D2E/DX2                !
 ! D12   D(3,4,5,7)            180.0            estimate D2E/DX2                !
 ! D13   D(10,4,5,6)           180.0            estimate D2E/DX2                !
 ! D14   D(10,4,5,7)             0.0            estimate D2E/DX2                !
 ! D15   D(3,4,10,11)          -59.9997         estimate D2E/DX2                !
 ! D16   D(3,4,10,12)           59.9997         estimate D2E/DX2                !
 ! D17   D(3,4,10,13)          180.0            estimate D2E/DX2                !
 ! D18   D(5,4,10,11)          120.0003         estimate D2E/DX2                !
 ! D19   D(5,4,10,12)         -120.0003         estimate D2E/DX2                !
 ! D20   D(5,4,10,13)            0.0            estimate D2E/DX2                !
 ! D21   D(4,5,6,1)              0.0            estimate D2E/DX2                !
 ! D22   D(7,5,6,1)            180.0            estimate D2E/DX2                !
 --------------------------------------------------------------------------------
 Trust Radius=3.00D-01 FncErr=1.00D-07 GrdErr=1.00D-06
 Number of steps in this run=     65 maximum allowed number of steps=    100.
 GradGradGradGradGradGradGradGradGradGradGradGradGradGradGradGradGradGrad

                          Input orientation:                          
 ---------------------------------------------------------------------
 Center     Atomic      Atomic             Coordinates (Angstroms)
 Number     Number       Type             X           Y           Z
 ---------------------------------------------------------------------
      1          6           0       -1.410404    0.084567    0.000000
      2          7           0       -0.432644   -0.862319    0.000000
      3          6           0        0.834720   -0.398686    0.000000
      4          6           0        1.133033    0.977715    0.000000
      5          6           0        0.039686    1.865413    0.000000
      6          7           0       -1.239308    1.434916    0.000000
      7          1           0        0.187683    2.960096    0.000000
      8         17           0       -3.070990   -0.498574    0.000000
      9         17           0        2.109202   -1.612480    0.000000
     10          6           0        2.586067    1.487903    0.000000
     11          1           0        3.089698    1.130143    0.873646
     12          1           0        3.089698    1.130143   -0.873646
     13          1           0        2.588383    2.557901    0.000000
 ---------------------------------------------------------------------
                    Distance matrix (angstroms):
                    1          2          3          4          5
     1  C    0.000000
     2  N    1.361105   0.000000
     3  C    2.296544   1.349507   0.000000
     4  C    2.695697   2.416003   1.408357   0.000000
     5  C    2.296557   2.768324   2.399631   1.408338   0.000000
     6  N    1.361145   2.434747   2.768337   2.415995   1.349501
     7  H    3.289764   3.872423   3.420537   2.196252   1.104642
     8  Cl   1.760000   2.663302   3.906987   4.455697   3.907012
     9  Cl   3.907377   2.650231   1.760000   2.768035   4.047053
    10  C    4.235697   3.825724   2.574186   1.540000   2.574212
    11  H    4.701851   4.140056   2.861032   2.148263   3.256756
    12  H    4.701851   4.140056   2.861032   2.148263   3.256756
    13  H    4.701881   4.563388   3.437549   2.148263   2.641098
                    6          7          8          9         10
     6  N    0.000000
     7  H    2.088654   0.000000
     8  Cl   2.663352   4.751983   0.000000
     9  Cl   4.527598   4.959908   5.298602   0.000000
    10  C    3.825741   2.814178   5.995697   3.136842   0.000000
    11  H    4.426786   3.540294   6.431956   3.040824   1.069998
    12  H    4.426786   3.540294   6.431956   3.040824   1.069998
    13  H    3.989024   2.434158   6.431994   4.197820   1.070000
                   11         12         13
    11  H    0.000000
    12  H    1.747293   0.000000
    13  H    1.747303   1.747303   0.000000
 Stoichiometry    C5H4Cl2N2
 Framework group  CS[SG(C5H2Cl2N2),X(H2)]
 Deg. of freedom    22
 Full point group                 CS      NOp   2
 Largest Abelian subgroup         CS      NOp   2
 Largest concise Abelian subgroup CS      NOp   2
                         Standard orientation:                         
 ---------------------------------------------------------------------
 Center     Atomic      Atomic             Coordinates (Angstroms)
 Number     Number       Type             X           Y           Z
 ---------------------------------------------------------------------
      1          6           0        0.531562   -1.309134    0.000000
      2          7           0        0.964585   -0.018747    0.000000
      3          6           0        0.000000    0.925045    0.000000
      4          6           0       -1.370574    0.601012    0.000000
      5          6           0       -1.700371   -0.768166    0.000000
      6          7           0       -0.760674   -1.736733    0.000000
      7          1           0       -2.751950   -1.106419    0.000000
      8         17           0        1.773462   -2.556246    0.000000
      9         17           0        0.545984    2.598216    0.000000
     10          6           0       -2.457191    1.692279    0.000000
     11          1           0       -2.351424    2.300926    0.873646
     12          1           0       -2.351424    2.300926   -0.873646
     13          1           0       -3.423708    1.233210    0.000000
 ---------------------------------------------------------------------
 Rotational constants (GHZ):      2.1149104      0.7599641      0.5609794
 Standard basis: 6-311G (5D, 7F)
 There are   111 symmetry adapted cartesian basis functions of A'  symmetry.
 There are    34 symmetry adapted cartesian basis functions of A"  symmetry.
 There are   111 symmetry adapted basis functions of A'  symmetry.
 There are    34 symmetry adapted basis functions of A"  symmetry.
   145 basis functions,   288 primitive gaussians,   145 cartesian basis functions
    41 alpha electrons       41 beta electrons
       nuclear repulsion energy       554.7204222427 Hartrees.
 NAtoms=   13 NActive=   13 NUniq=   12 SFac= 1.17D+00 NAtFMM=   60 NAOKFM=F Big=F
 Integral buffers will be    262144 words long.
 Raffenetti 2 integral format.
 Two-electron integral symmetry is turned on.
 One-electron integrals computed using PRISM.
 NBasis=   145 RedAO= T EigKep=  1.33D-03  NBF=   111    34
 NBsUse=   145 1.00D-06 EigRej= -1.00D+00 NBFU=   111    34
 ExpMin= 1.03D-01 ExpMax= 1.06D+05 ExpMxC= 3.62D+03 IAcc=2 IRadAn=         4 AccDes= 0.00D+00
 Harris functional with IExCor=  402 and IRadAn=       4 diagonalized for initial guess.
 HarFok:  IExCor=  402 AccDes= 0.00D+00 IRadAn=         4 IDoV= 1 UseB2=F ITyADJ=14
 ICtDFT=  3500011 ScaDFX=  1.000000  1.000000  1.000000  1.000000
 FoFCou: FMM=F IPFlag=           0 FMFlag=      100000 FMFlg1=           0
         NFxFlg=           0 DoJE=T BraDBF=F KetDBF=T FulRan=T
         wScrn=  0.000000 ICntrl=     500 IOpCl=  0 I1Cent=   200000004 NGrid=           0
         NMat0=    1 NMatS0=      1 NMatT0=    0 NMatD0=    1 NMtDS0=    0 NMtDT0=    0
 Petite list used in FoFCou.
 Initial guess orbital symmetries:
       Occupied  (A') (A') (A') (A') (A') (A') (A') (A') (A') (A')
                 (A') (A') (A') (A') (A") (A") (A') (A') (A') (A')
                 (A') (A') (A') (A') (A') (A') (A') (A") (A') (A')
                 (A") (A') (A') (A") (A') (A") (A') (A') (A") (A')
                 (A")
       Virtual   (A") (A") (A') (A') (A") (A') (A') (A') (A") (A')
                 (A') (A') (A') (A') (A') (A") (A') (A') (A') (A")
                 (A') (A") (A') (A') (A') (A") (A') (A") (A') (A')
                 (A') (A') (A") (A') (A') (A") (A') (A") (A') (A')
                 (A") (A') (A') (A') (A") (A') (A') (A') (A') (A')
                 (A') (A') (A') (A') (A') (A') (A") (A") (A') (A")
                 (A') (A') (A') (A') (A') (A') (A") (A") (A") (A')
                 (A') (A") (A') (A') (A') (A') (A") (A') (A') (A')
                 (A') (A") (A') (A") (A') (A') (A') (A') (A') (A')
                 (A') (A') (A') (A') (A") (A") (A') (A') (A') (A')
                 (A') (A') (A') (A')
 The electronic state of the initial guess is 1-A'.
 Keep R1 ints in memory in symmetry-blocked form, NReq=86443437.
 Requested convergence on RMS density matrix=1.00D-08 within 128 cycles.
 Requested convergence on MAX density matrix=1.00D-06.
 Requested convergence on             energy=1.00D-06.
 No special actions if energy rises.
 Integral accuracy reduced to 1.0D-05 until final iterations.
 Initial convergence to 1.0D-05 achieved.  Increase integral accuracy.
 SCF Done:  E(RB3LYP) =  -1222.81064683     A.U. after   16 cycles
            NFock= 16  Conv=0.35D-08     -V/T= 2.0026

 **********************************************************************

            Population analysis using the SCF density.

 **********************************************************************

 Orbital symmetries:
       Occupied  (A') (A') (A') (A') (A') (A') (A') (A') (A') (A')
                 (A') (A') (A") (A') (A') (A") (A') (A') (A') (A')
                 (A') (A') (A') (A') (A') (A') (A') (A") (A') (A')
                 (A") (A') (A') (A") (A") (A') (A') (A') (A") (A")
                 (A')
       Virtual   (A") (A") (A') (A') (A') (A') (A") (A') (A") (A')
                 (A') (A') (A') (A') (A') (A') (A") (A') (A") (A")
                 (A') (A') (A') (A") (A') (A') (A') (A") (A') (A")
                 (A') (A') (A') (A') (A") (A') (A") (A') (A') (A')
                 (A") (A') (A') (A') (A") (A') (A') (A') (A') (A')
                 (A') (A') (A') (A') (A') (A') (A") (A") (A') (A')
                 (A") (A') (A') (A') (A') (A') (A") (A") (A") (A')
                 (A') (A") (A') (A') (A') (A') (A") (A') (A') (A')
                 (A') (A") (A') (A") (A') (A') (A') (A') (A') (A')
                 (A') (A') (A') (A') (A") (A") (A') (A') (A') (A')
                 (A') (A') (A') (A')
 The electronic state is 1-A'.
 Alpha  occ. eigenvalues -- -101.58764-101.57322 -14.37707 -14.36948 -10.33984
 Alpha  occ. eigenvalues --  -10.32369 -10.27151 -10.25180 -10.20260  -9.50269
 Alpha  occ. eigenvalues --   -9.48797  -7.26813  -7.25685  -7.25582  -7.25372
 Alpha  occ. eigenvalues --   -7.24212  -7.24088  -1.05179  -0.95882  -0.90867
 Alpha  occ. eigenvalues --   -0.87236  -0.83086  -0.73933  -0.69347  -0.66294
 Alpha  occ. eigenvalues --   -0.58117  -0.54023  -0.49214  -0.46761  -0.46450
 Alpha  occ. eigenvalues --   -0.45385  -0.44996  -0.43718  -0.39901  -0.36046
 Alpha  occ. eigenvalues --   -0.34866  -0.34017  -0.33380  -0.32799  -0.29109
 Alpha  occ. eigenvalues --   -0.28747
 Alpha virt. eigenvalues --   -0.08294  -0.06887  -0.00967   0.02100   0.03574
 Alpha virt. eigenvalues --    0.06661   0.07023   0.10152   0.10862   0.16076
 Alpha virt. eigenvalues --    0.18074   0.20615   0.23570   0.25952   0.26514
 Alpha virt. eigenvalues --    0.27763   0.27776   0.28045   0.28501   0.29133
 Alpha virt. eigenvalues --    0.29769   0.32029   0.33689   0.36467   0.36501
 Alpha virt. eigenvalues --    0.39069   0.42876   0.45720   0.46918   0.48643
 Alpha virt. eigenvalues --    0.48655   0.49656   0.52241   0.53131   0.55275
 Alpha virt. eigenvalues --    0.55425   0.57423   0.57859   0.61136   0.64199
 Alpha virt. eigenvalues --    0.66915   0.69424   0.73193   0.74637   0.78481
 Alpha virt. eigenvalues --    0.79211   0.83132   0.84534   0.85587   0.90094
 Alpha virt. eigenvalues --    0.97799   1.01618   1.08161   1.12653   1.30253
 Alpha virt. eigenvalues --    1.32935   2.07762   2.08385   2.12256   2.12691
 Alpha virt. eigenvalues --    2.19779   2.20866   2.22382   2.23704   2.26996
 Alpha virt. eigenvalues --    2.28747   2.47783   2.53942   2.55337   2.64638
 Alpha virt. eigenvalues --    2.68406   2.70298   2.72971   2.76390   2.83808
 Alpha virt. eigenvalues --    2.84959   2.93479   2.97645   3.03035   3.09072
 Alpha virt. eigenvalues --    3.15920   3.64909   3.70440   3.76083   3.86829
 Alpha virt. eigenvalues --    3.99203   4.14841   9.52694   9.56143  23.14447
 Alpha virt. eigenvalues --   23.25568  23.34454  23.44044  23.57935  25.36442
 Alpha virt. eigenvalues --   25.38233  25.47482  25.54814  25.90140  26.12109
 Alpha virt. eigenvalues --   35.35392  35.39887 215.47636 215.52305
          Condensed to atoms (all electrons):
               1          2          3          4          5          6
     1  C    5.229429   0.368579  -0.135895  -0.010224  -0.140679   0.362530
     2  N    0.368579   6.840792   0.456427  -0.088148  -0.032643  -0.103969
     3  C   -0.135895   0.456427   5.457340   0.118422  -0.086214  -0.044753
     4  C   -0.010224  -0.088148   0.118422   5.917282   0.366347  -0.043897
     5  C   -0.140679  -0.032643  -0.086214   0.366347   4.972746   0.473943
     6  N    0.362530  -0.103969  -0.044753  -0.043897   0.473943   6.761516
     7  H    0.005971  -0.000711   0.004744  -0.072153   0.392223  -0.033719
     8  Cl   0.257316  -0.116079   0.002152   0.000642   0.002643  -0.114081
     9  Cl   0.004408  -0.094797   0.308290  -0.177863   0.000748  -0.001172
    10  C    0.004921   0.006181  -0.046657   0.123278  -0.026435   0.007239
    11  H    0.000025  -0.000051  -0.011022  -0.039021   0.000729  -0.000172
    12  H    0.000025  -0.000051  -0.011022  -0.039021   0.000729  -0.000172
    13  H   -0.000063  -0.000242   0.008714  -0.048832  -0.000585   0.000220
               7          8          9         10         11         12
     1  C    0.005971   0.257316   0.004408   0.004921   0.000025   0.000025
     2  N   -0.000711  -0.116079  -0.094797   0.006181  -0.000051  -0.000051
     3  C    0.004744   0.002152   0.308290  -0.046657  -0.011022  -0.011022
     4  C   -0.072153   0.000642  -0.177863   0.123278  -0.039021  -0.039021
     5  C    0.392223   0.002643   0.000748  -0.026435   0.000729   0.000729
     6  N   -0.033719  -0.114081  -0.001172   0.007239  -0.000172  -0.000172
     7  H    0.496962  -0.000395  -0.000298  -0.001560   0.000014   0.000014
     8  Cl  -0.000395  16.903585  -0.000363   0.000107  -0.000004  -0.000004
     9  Cl  -0.000298  -0.000363  16.890661   0.003587  -0.001472  -0.001472
    10  C   -0.001560   0.000107   0.003587   5.367068   0.387229   0.387229
    11  H    0.000014  -0.000004  -0.001472   0.387229   0.489982  -0.025588
    12  H    0.000014  -0.000004  -0.001472   0.387229  -0.025588   0.489982
    13  H    0.004534  -0.000004   0.001102   0.378975  -0.026360  -0.026360
              13
     1  C   -0.000063
     2  N   -0.000242
     3  C    0.008714
     4  C   -0.048832
     5  C   -0.000585
     6  N    0.000220
     7  H    0.004534
     8  Cl  -0.000004
     9  Cl   0.001102
    10  C    0.378975
    11  H   -0.026360
    12  H   -0.026360
    13  H    0.510628
 Mulliken charges:
               1
     1  C    0.053658
     2  N   -0.235288
     3  C   -0.020525
     4  C   -0.006812
     5  C    0.076448
     6  N   -0.263514
     7  H    0.204376
     8  Cl   0.064485
     9  Cl   0.068641
    10  C   -0.591162
    11  H    0.225710
    12  H    0.225710
    13  H    0.198274
 Sum of Mulliken charges =   0.00000
 Mulliken charges with hydrogens summed into heavy atoms:
               1
     1  C    0.053658
     2  N   -0.235288
     3  C   -0.020525
     4  C   -0.006812
     5  C    0.280824
     6  N   -0.263514
     8  Cl   0.064485
     9  Cl   0.068641
    10  C    0.058532
 Electronic spatial extent (au):  <R**2>=           1814.1964
 Charge=              0.0000 electrons
 Dipole moment (field-independent basis, Debye):
    X=             -4.0571    Y=              2.0222    Z=              0.0000  Tot=              4.5331
 Quadrupole moment (field-independent basis, Debye-Ang):
   XX=            -62.7774   YY=            -72.0853   ZZ=            -66.4057
   XY=             -2.9279   XZ=              0.0000   YZ=              0.0000
 Traceless Quadrupole moment (field-independent basis, Debye-Ang):
   XX=              4.3121   YY=             -4.9958   ZZ=              0.6837
   XY=             -2.9279   XZ=              0.0000   YZ=              0.0000
 Octapole moment (field-independent basis, Debye-Ang**2):
  XXX=            -18.5408  YYY=             21.2094  ZZZ=              0.0000  XYY=              2.1738
  XXY=              1.6917  XXZ=              0.0000  XZZ=              2.5626  YZZ=              1.1830
  YYZ=              0.0000  XYZ=              0.0000
 Hexadecapole moment (field-independent basis, Debye-Ang**3):
 XXXX=           -803.4489 YYYY=          -1466.1233 ZZZZ=            -79.5904 XXXY=            187.0772
 XXXZ=              0.0000 YYYX=            169.4597 YYYZ=              0.0000 ZZZX=              0.0000
 ZZZY=              0.0000 XXYY=           -366.6040 XXZZ=           -159.8117 YYZZ=           -255.9225
 XXYZ=              0.0000 YYXZ=              0.0000 ZZXY=             61.7233
 N-N= 5.547204222427D+02 E-N=-3.999523438734D+03  KE= 1.219643600800D+03
 Symmetry A'   KE= 1.118177237985D+03
 Symmetry A"   KE= 1.014663628148D+02
 ******************************Gaussian NBO Version 3.1******************************
             N A T U R A L   A T O M I C   O R B I T A L   A N D
          N A T U R A L   B O N D   O R B I T A L   A N A L Y S I S
 ******************************Gaussian NBO Version 3.1******************************
       /RESON  / : Allow strongly delocalized NBO set

 Analyzing the SCF density

 Job title: Energy Calculation(GC)                                          

 Storage needed:     63817 in NPA,     84725 in NBO ( 134217166 available)


 NATURAL POPULATIONS:  Natural atomic orbital occupancies 
                                                          
   NAO  Atom  No  lang   Type(AO)    Occupancy      Energy
 ----------------------------------------------------------
     1    C    1  S      Cor( 1S)     1.99900     -10.23766
     2    C    1  S      Val( 2S)     0.85525      -0.27675
     3    C    1  S      Ryd( 3S)     0.00165       0.52791
     4    C    1  S      Ryd( 4S)     0.00004      23.00390
     5    C    1  px     Val( 2p)     0.88726      -0.15328
     6    C    1  px     Ryd( 3p)     0.01289       0.79002
     7    C    1  px     Ryd( 4p)     0.00012       2.57433
     8    C    1  py     Val( 2p)     0.87903      -0.15087
     9    C    1  py     Ryd( 3p)     0.01323       0.79552
    10    C    1  py     Ryd( 4p)     0.00014       2.58195
    11    C    1  pz     Val( 2p)     0.98097      -0.20797
    12    C    1  pz     Ryd( 3p)     0.00193       0.54272
    13    C    1  pz     Ryd( 4p)     0.00007       2.43883

    14    N    2  S      Cor( 1S)     1.99920     -14.19178
    15    N    2  S      Val( 2S)     1.40005      -0.58477
    16    N    2  S      Ryd( 3S)     0.00163       1.55696
    17    N    2  S      Ryd( 4S)     0.00000      35.15876
    18    N    2  px     Val( 2p)     1.64546      -0.28188
    19    N    2  px     Ryd( 3p)     0.00678       0.76934
    20    N    2  px     Ryd( 4p)     0.00011       3.72993
    21    N    2  py     Val( 2p)     1.23368      -0.24408
    22    N    2  py     Ryd( 3p)     0.00332       1.06450
    23    N    2  py     Ryd( 4p)     0.00017       3.97951
    24    N    2  pz     Val( 2p)     1.17226      -0.23491
    25    N    2  pz     Ryd( 3p)     0.00114       0.70816
    26    N    2  pz     Ryd( 4p)     0.00002       3.67038

    27    C    3  S      Cor( 1S)     1.99857     -10.20792
    28    C    3  S      Val( 2S)     0.88635      -0.26771
    29    C    3  S      Ryd( 3S)     0.00202       0.65386
    30    C    3  S      Ryd( 4S)     0.00003      22.98397
    31    C    3  px     Val( 2p)     1.00085      -0.13544
    32    C    3  px     Ryd( 3p)     0.01263       0.71401
    33    C    3  px     Ryd( 4p)     0.00020       2.70742
    34    C    3  py     Val( 2p)     0.89098      -0.20843
    35    C    3  py     Ryd( 3p)     0.00838       0.86256
    36    C    3  py     Ryd( 4p)     0.00018       2.63379
    37    C    3  pz     Val( 2p)     0.99504      -0.20673
    38    C    3  pz     Ryd( 3p)     0.00177       0.52931
    39    C    3  pz     Ryd( 4p)     0.00002       2.49751

    40    C    4  S      Cor( 1S)     1.99890     -10.11736
    41    C    4  S      Val( 2S)     0.90772      -0.21461
    42    C    4  S      Ryd( 3S)     0.00204       0.92393
    43    C    4  S      Ryd( 4S)     0.00001      23.03436
    44    C    4  px     Val( 2p)     1.08749      -0.13851
    45    C    4  px     Ryd( 3p)     0.00327       1.09432
    46    C    4  px     Ryd( 4p)     0.00020       2.81070
    47    C    4  py     Val( 2p)     1.08810      -0.13026
    48    C    4  py     Ryd( 3p)     0.00442       1.02917
    49    C    4  py     Ryd( 4p)     0.00018       2.80473
    50    C    4  pz     Val( 2p)     0.99684      -0.16423
    51    C    4  pz     Ryd( 3p)     0.00130       0.57794
    52    C    4  pz     Ryd( 4p)     0.00001       2.56346

    53    C    5  S      Cor( 1S)     1.99905     -10.13907
    54    C    5  S      Val( 2S)     0.92467      -0.22634
    55    C    5  S      Ryd( 3S)     0.00261       0.68963
    56    C    5  S      Ryd( 4S)     0.00003      23.00054
    57    C    5  px     Val( 2p)     1.09460      -0.12165
    58    C    5  px     Ryd( 3p)     0.00738       1.03509
    59    C    5  px     Ryd( 4p)     0.00010       2.62940
    60    C    5  py     Val( 2p)     0.98154      -0.09326
    61    C    5  py     Ryd( 3p)     0.00931       0.76295
    62    C    5  py     Ryd( 4p)     0.00017       2.53352
    63    C    5  pz     Val( 2p)     0.90204      -0.17128
    64    C    5  pz     Ryd( 3p)     0.00060       0.49156
    65    C    5  pz     Ryd( 4p)     0.00002       2.49461

    66    N    6  S      Cor( 1S)     1.99934     -14.18756
    67    N    6  S      Val( 2S)     1.40565      -0.58148
    68    N    6  S      Ryd( 3S)     0.00111       1.57538
    69    N    6  S      Ryd( 4S)     0.00000      35.14180
    70    N    6  px     Val( 2p)     1.22781      -0.22967
    71    N    6  px     Ryd( 3p)     0.00343       1.03691
    72    N    6  px     Ryd( 4p)     0.00014       3.96360
    73    N    6  py     Val( 2p)     1.64868      -0.26911
    74    N    6  py     Ryd( 3p)     0.00611       0.78102
    75    N    6  py     Ryd( 4p)     0.00009       3.72181
    76    N    6  pz     Val( 2p)     1.16278      -0.22859
    77    N    6  pz     Ryd( 3p)     0.00075       0.71911
    78    N    6  pz     Ryd( 4p)     0.00002       3.65935

    79    H    7  S      Val( 1S)     0.78322      -0.01011
    80    H    7  S      Ryd( 2S)     0.00134       0.59260
    81    H    7  S      Ryd( 3S)     0.00033       1.81938

    82   Cl    8  S      Cor( 1S)     2.00000    -100.27254
    83   Cl    8  S      Cor( 2S)     1.99978     -10.46275
    84   Cl    8  S      Val( 3S)     1.85914      -1.03073
    85   Cl    8  S      Ryd( 4S)     0.00146       0.97401
    86   Cl    8  S      Ryd( 5S)     0.00000      17.28475
    87   Cl    8  S      Ryd( 6S)     0.00000     207.62393
    88   Cl    8  px     Cor( 2p)     1.99996      -7.24258
    89   Cl    8  px     Val( 3p)     1.59932      -0.31151
    90   Cl    8  px     Ryd( 4p)     0.00200       0.33433
    91   Cl    8  px     Ryd( 5p)     0.00006       2.47572
    92   Cl    8  px     Ryd( 6p)     0.00000      25.34905
    93   Cl    8  py     Cor( 2p)     1.99996      -7.24271
    94   Cl    8  py     Val( 3p)     1.59238      -0.31152
    95   Cl    8  py     Ryd( 4p)     0.00202       0.33438
    96   Cl    8  py     Ryd( 5p)     0.00006       2.47385
    97   Cl    8  py     Ryd( 6p)     0.00000      25.34935
    98   Cl    8  pz     Cor( 2p)     1.99999      -7.23820
    99   Cl    8  pz     Val( 3p)     1.89820      -0.33131
   100   Cl    8  pz     Ryd( 4p)     0.00236       0.35572
   101   Cl    8  pz     Ryd( 5p)     0.00000       2.50433
   102   Cl    8  pz     Ryd( 6p)     0.00000      24.91075

   103   Cl    9  S      Cor( 1S)     2.00000    -100.29412
   104   Cl    9  S      Cor( 2S)     1.99978     -10.45940
   105   Cl    9  S      Val( 3S)     1.85362      -1.05143
   106   Cl    9  S      Ryd( 4S)     0.00103       1.03853
   107   Cl    9  S      Ryd( 5S)     0.00000      17.62812
   108   Cl    9  S      Ryd( 6S)     0.00000     207.31412
   109   Cl    9  px     Cor( 2p)     1.99999      -7.25285
   110   Cl    9  px     Val( 3p)     1.89200      -0.34259
   111   Cl    9  px     Ryd( 4p)     0.00142       0.37362
   112   Cl    9  px     Ryd( 5p)     0.00001       2.29289
   113   Cl    9  px     Ryd( 6p)     0.00000      25.41263
   114   Cl    9  py     Cor( 2p)     1.99993      -7.26134
   115   Cl    9  py     Val( 3p)     1.31199      -0.31141
   116   Cl    9  py     Ryd( 4p)     0.00262       0.29438
   117   Cl    9  py     Ryd( 5p)     0.00007       2.32469
   118   Cl    9  py     Ryd( 6p)     0.00000      25.85857
   119   Cl    9  pz     Cor( 2p)     1.99999      -7.25273
   120   Cl    9  pz     Val( 3p)     1.89995      -0.34666
   121   Cl    9  pz     Ryd( 4p)     0.00257       0.34670
   122   Cl    9  pz     Ryd( 5p)     0.00000       2.27442
   123   Cl    9  pz     Ryd( 6p)     0.00000      25.14120

   124    C   10  S      Cor( 1S)     1.99922     -10.05859
   125    C   10  S      Val( 2S)     1.07173      -0.26945
   126    C   10  S      Ryd( 3S)     0.00059       0.94849
   127    C   10  S      Ryd( 4S)     0.00001      23.29920
   128    C   10  px     Val( 2p)     1.13844      -0.12903
   129    C   10  px     Ryd( 3p)     0.00255       0.53367
   130    C   10  px     Ryd( 4p)     0.00009       2.78099
   131    C   10  py     Val( 2p)     1.14204      -0.12858
   132    C   10  py     Ryd( 3p)     0.00217       0.50725
   133    C   10  py     Ryd( 4p)     0.00009       2.71831
   134    C   10  pz     Val( 2p)     1.22418      -0.13110
   135    C   10  pz     Ryd( 3p)     0.00102       0.47236
   136    C   10  pz     Ryd( 4p)     0.00005       2.80729

   137    H   11  S      Val( 1S)     0.77749       0.01699
   138    H   11  S      Ryd( 2S)     0.00127       0.60881
   139    H   11  S      Ryd( 3S)     0.00013       1.84618

   140    H   12  S      Val( 1S)     0.77749       0.01699
   141    H   12  S      Ryd( 2S)     0.00127       0.60881
   142    H   12  S      Ryd( 3S)     0.00013       1.84618

   143    H   13  S      Val( 1S)     0.79077       0.01094
   144    H   13  S      Ryd( 2S)     0.00156       0.51436
   145    H   13  S      Ryd( 3S)     0.00017       1.92724

 WARNING:  1 low occupancy (<1.9990e) core orbital  found on  C    3
           1 low occupancy (<1.9990e) core orbital  found on  C    4


 Summary of Natural Population Analysis:                  
                                                          
                                       Natural Population 
                Natural  -----------------------------------------------
    Atom  No    Charge         Core      Valence    Rydberg      Total
 -----------------------------------------------------------------------
      C    1    0.36841      1.99900     3.60251    0.03008     5.63159
      N    2   -0.46383      1.99920     5.45145    0.01318     7.46383
      C    3    0.20299      1.99857     3.77322    0.02522     5.79701
      C    4   -0.09049      1.99890     4.08016    0.01143     6.09049
      C    5    0.07789      1.99905     3.90285    0.02021     5.92211
      N    6   -0.45591      1.99934     5.44491    0.01165     7.45591
      H    7    0.21511      0.00000     0.78322    0.00167     0.78489
     Cl    8    0.04329      9.99969     6.94904    0.00797    16.95671
     Cl    9    0.03502      9.99970     6.95755    0.00773    16.96498
      C   10   -0.58219      1.99922     4.57640    0.00656     6.58219
      H   11    0.22110      0.00000     0.77749    0.00140     0.77890
      H   12    0.22110      0.00000     0.77749    0.00140     0.77890
      H   13    0.20750      0.00000     0.79077    0.00173     0.79250
 =======================================================================
   * Total *    0.00000     33.99269    47.86708    0.14024    82.00000

                                 Natural Population      
 --------------------------------------------------------
   Core                      33.99269 ( 99.9785% of  34)
   Valence                   47.86708 ( 99.7231% of  48)
   Natural Minimal Basis     81.85976 ( 99.8290% of  82)
   Natural Rydberg Basis      0.14024 (  0.1710% of  82)
 --------------------------------------------------------

    Atom  No          Natural Electron Configuration
 ----------------------------------------------------------------------------
      C    1      [core]2S( 0.86)2p( 2.75)3p( 0.03)
      N    2      [core]2S( 1.40)2p( 4.05)3p( 0.01)
      C    3      [core]2S( 0.89)2p( 2.89)3p( 0.02)
      C    4      [core]2S( 0.91)2p( 3.17)3p( 0.01)
      C    5      [core]2S( 0.92)2p( 2.98)3p( 0.02)
      N    6      [core]2S( 1.41)2p( 4.04)3p( 0.01)
      H    7            1S( 0.78)
     Cl    8      [core]3S( 1.86)3p( 5.09)4p( 0.01)
     Cl    9      [core]3S( 1.85)3p( 5.10)4p( 0.01)
      C   10      [core]2S( 1.07)2p( 3.50)3p( 0.01)
      H   11            1S( 0.78)
      H   12            1S( 0.78)
      H   13            1S( 0.79)


 NATURAL BOND ORBITAL ANALYSIS:

                       Occupancies       Lewis Structure    Low   High
           Occ.    -------------------  -----------------   occ   occ
  Cycle   Thresh.   Lewis   Non-Lewis     CR  BD  3C  LP    (L)   (NL)   Dev
 =============================================================================
   1(1)    1.90    78.27787   3.72213     17  15   0   9     6      5    0.41
   2(2)    1.90    78.25013   3.74987     17  15   0   9     6      5    0.41
   3(3)    1.90    78.25013   3.74987     17  15   0   9     6      5    0.41
   4(4)    1.90    78.27787   3.72213     17  15   0   9     6      5    0.41
   5(1)    1.80    78.59888   3.40112     17  13   0  11     3      3    0.41
   6(2)    1.80    78.59888   3.40112     17  13   0  11     3      3    0.41
   7(1)    1.70    79.67997   2.32003     17  15   0   9     1      3    0.40
   8(2)    1.70    79.69694   2.30306     17  15   0   9     1      3    0.41
   9(3)    1.70    79.67997   2.32003     17  15   0   9     1      3    0.40
  10(4)    1.70    79.69694   2.30306     17  15   0   9     1      3    0.41
  11(5)    1.70    79.67997   2.32003     17  15   0   9     1      3    0.40
  12(6)    1.70    79.69694   2.30306     17  15   0   9     1      3    0.41
  13(7)    1.70    79.67997   2.32003     17  15   0   9     1      3    0.40
  14(8)    1.70    79.69694   2.30306     17  15   0   9     1      3    0.41
  15(9)    1.70    79.67997   2.32003     17  15   0   9     1      3    0.40
  16(1)    1.60    80.30380   1.69620     17  16   0   8     0      3    0.41
  17(2)    1.60    80.30201   1.69799     17  16   0   8     0      3    0.40
  18(3)    1.60    80.30380   1.69620     17  16   0   8     0      3    0.41
  19(4)    1.60    80.30201   1.69799     17  16   0   8     0      3    0.40
  20(5)    1.60    80.30380   1.69620     17  16   0   8     0      3    0.41
  21(6)    1.60    80.30201   1.69799     17  16   0   8     0      3    0.40
  22(7)    1.60    80.30380   1.69620     17  16   0   8     0      3    0.41
  23(8)    1.60    80.30201   1.69799     17  16   0   8     0      3    0.40
  24(9)    1.60    80.30380   1.69620     17  16   0   8     0      3    0.41
  25(1)    1.50    80.30380   1.69620     17  16   0   8     0      3    0.41
  26(2)    1.50    80.30201   1.69799     17  16   0   8     0      3    0.40
  27(3)    1.50    80.30380   1.69620     17  16   0   8     0      3    0.41
  28(4)    1.50    80.30201   1.69799     17  16   0   8     0      3    0.40
  29(5)    1.50    80.30380   1.69620     17  16   0   8     0      3    0.41
  30(6)    1.50    80.30201   1.69799     17  16   0   8     0      3    0.40
  31(7)    1.50    80.30380   1.69620     17  16   0   8     0      3    0.41
  32(8)    1.50    80.30201   1.69799     17  16   0   8     0      3    0.40
  33(9)    1.50    80.30380   1.69620     17  16   0   8     0      3    0.41
  34(1)    1.60    80.30380   1.69620     17  16   0   8     0      3    0.41
 -----------------------------------------------------------------------------

 Structure accepted: RESONANCE keyword permits strongly delocalized structure

 WARNING:  1 low occupancy (<1.9990e) core orbital  found on  C    3
           1 low occupancy (<1.9990e) core orbital  found on  C    4

 --------------------------------------------------------
   Core                     33.99271 ( 99.979% of  34)
   Valence Lewis            46.31109 ( 96.481% of  48)
  ==================       ============================
   Total Lewis              80.30380 ( 97.931% of  82)
  -----------------------------------------------------
   Valence non-Lewis         1.58786 (  1.936% of  82)
   Rydberg non-Lewis         0.10834 (  0.132% of  82)
  ==================       ============================
   Total non-Lewis           1.69620 (  2.069% of  82)
 --------------------------------------------------------


       (Occupancy)   Bond orbital/ Coefficients/ Hybrids
 ---------------------------------------------------------------------------------
     1. (1.98190) BD ( 1) C   1 - N   2  
                ( 40.30%)   0.6349* C   1 s( 36.96%)p 1.71( 63.04%)
                                            0.0002  0.6079  0.0026 -0.0006  0.2484
                                            0.0514 -0.0005  0.7523  0.0116  0.0021
                                            0.0000  0.0000  0.0000
                ( 59.70%)   0.7726* N   2 s( 33.93%)p 1.95( 66.07%)
                                           -0.0004  0.5825  0.0076 -0.0003 -0.2131
                                            0.0236  0.0043 -0.7838 -0.0195 -0.0025
                                            0.0000  0.0000  0.0000
     2. (1.99128) BD ( 1) C   1 - N   6  
                ( 40.96%)   0.6400* C   1 s( 37.35%)p 1.68( 62.65%)
                                            0.0001  0.6112  0.0044 -0.0005 -0.7509
                                           -0.0168 -0.0014 -0.2440 -0.0533  0.0011
                                            0.0000  0.0000  0.0000
                ( 59.04%)   0.7684* N   6 s( 33.79%)p 1.96( 66.21%)
                                           -0.0001  0.5813  0.0071 -0.0003  0.7860
                                            0.0180  0.0023  0.2084 -0.0220 -0.0041
                                            0.0000  0.0000  0.0000
     3. (1.71074) BD ( 2) C   1 - N   6  
                ( 42.88%)   0.6549* C   1 s(  0.00%)p 1.00(100.00%)
                                            0.0000  0.0000  0.0000  0.0000  0.0000
                                            0.0000  0.0000  0.0000  0.0000  0.0000
                                            1.0000 -0.0011  0.0080
                ( 57.12%)   0.7558* N   6 s(  0.00%)p 1.00(100.00%)
                                            0.0000  0.0000  0.0000  0.0000  0.0000
                                            0.0000  0.0000  0.0000  0.0000  0.0000
                                            0.9998  0.0167 -0.0046
     4. (1.98325) BD ( 1) C   1 -Cl   8  
                ( 46.20%)   0.6797* C   1 s( 25.64%)p 2.90( 74.36%)
                                           -0.0006  0.5063 -0.0055  0.0003  0.6094
                                           -0.0170 -0.0092 -0.6095  0.0163  0.0092
                                            0.0000  0.0000  0.0000
                ( 53.80%)   0.7335*Cl   8 s( 15.20%)p 5.58( 84.80%)
                                            0.0000  0.0002  0.3884  0.0335  0.0002
                                           -0.0001 -0.0001 -0.6474  0.0344  0.0007
                                           -0.0001  0.0001  0.6531 -0.0350 -0.0008
                                            0.0001  0.0000  0.0000  0.0000  0.0000
                                            0.0000
     5. (1.98083) BD ( 1) N   2 - C   3  
                ( 59.19%)   0.7693* N   2 s( 35.94%)p 1.78( 64.06%)
                                           -0.0004  0.5995  0.0096 -0.0002 -0.5382
                                            0.0123  0.0020  0.5917  0.0251  0.0047
                                            0.0000  0.0000  0.0000
                ( 40.81%)   0.6388* C   3 s( 32.91%)p 2.04( 67.09%)
                                            0.0001  0.5734  0.0186  0.0001  0.6053
                                            0.0571  0.0007 -0.5487  0.0121 -0.0028
                                            0.0000  0.0000  0.0000
     6. (1.72275) BD ( 2) N   2 - C   3  
                ( 56.94%)   0.7546* N   2 s(  0.00%)p 1.00(100.00%)
                                            0.0000  0.0000  0.0000  0.0000  0.0000
                                            0.0000  0.0000  0.0000  0.0000  0.0000
                                            0.9998  0.0199 -0.0046
                ( 43.06%)   0.6562* C   3 s(  0.00%)p 1.00(100.00%)
                                            0.0000  0.0000  0.0000  0.0000  0.0000
                                            0.0000  0.0000  0.0000  0.0000  0.0000
                                            0.9999  0.0095  0.0038
     7. (1.98312) BD ( 1) C   3 - C   4  
                ( 49.78%)   0.7055* C   3 s( 42.96%)p 1.33( 57.04%)
                                           -0.0001 -0.6554  0.0075  0.0002  0.7429
                                           -0.0059  0.0084  0.1336 -0.0236  0.0016
                                            0.0000  0.0000  0.0000
                ( 50.22%)   0.7087* C   4 s( 33.63%)p 1.97( 66.37%)
                                            0.0000 -0.5798 -0.0089 -0.0001 -0.7829
                                            0.0024 -0.0009 -0.2243 -0.0222 -0.0005
                                            0.0000  0.0000  0.0000
     8. (1.98586) BD ( 1) C   3 -Cl   9  
                ( 45.78%)   0.6766* C   3 s( 23.92%)p 3.18( 76.08%)
                                           -0.0004  0.4890 -0.0064 -0.0001  0.2828
                                            0.0209 -0.0080  0.8244 -0.0258 -0.0114
                                            0.0000  0.0000  0.0000
                ( 54.22%)   0.7363*Cl   9 s( 15.82%)p 5.32( 84.18%)
                                            0.0000  0.0002  0.3969  0.0263  0.0000
                                           -0.0001  0.0000 -0.2871  0.0118 -0.0007
                                           -0.0002 -0.0001 -0.8702  0.0435  0.0008
                                            0.0000  0.0000  0.0000  0.0000  0.0000
                                            0.0000
     9. (1.97420) BD ( 1) C   4 - C   5  
                ( 51.32%)   0.7163* C   4 s( 34.34%)p 1.91( 65.66%)
                                           -0.0003  0.5860  0.0023  0.0003 -0.2101
                                           -0.0281 -0.0014 -0.7821  0.0003 -0.0017
                                            0.0000  0.0000  0.0000
                ( 48.68%)   0.6977* C   5 s( 39.05%)p 1.56( 60.95%)
                                            0.0002  0.6248  0.0071 -0.0001  0.1809
                                            0.0357 -0.0027  0.7586 -0.0061 -0.0004
                                            0.0000  0.0000  0.0000
    10. (1.60370) BD ( 2) C   4 - C   5  
                ( 53.62%)   0.7323* C   4 s(  0.00%)p 1.00(100.00%)
                                            0.0000  0.0000  0.0000  0.0000  0.0000
                                            0.0000  0.0000  0.0000  0.0000  0.0000
                                            1.0000 -0.0035  0.0003
                ( 46.38%)   0.6810* C   5 s(  0.00%)p 1.00(100.00%)
                                            0.0000  0.0000  0.0000  0.0000  0.0000
                                            0.0000  0.0000  0.0000  0.0000  0.0000
                                            1.0000  0.0072  0.0042
    11. (1.97723) BD ( 1) C   4 - C  10  
                ( 52.05%)   0.7215* C   4 s( 32.01%)p 2.12( 67.99%)
                                            0.0000  0.5657 -0.0036 -0.0006 -0.5850
                                            0.0017  0.0012  0.5809 -0.0158  0.0005
                                            0.0000  0.0000  0.0000
                ( 47.95%)   0.6924* C  10 s( 27.98%)p 2.57( 72.02%)
                                            0.0005  0.5287  0.0144  0.0005  0.5995
                                            0.0026 -0.0048 -0.6006  0.0057  0.0038
                                            0.0000  0.0000  0.0000
    12. (1.97862) BD ( 1) C   5 - N   6  
                ( 40.58%)   0.6370* C   5 s( 30.93%)p 2.23( 69.07%)
                                            0.0001  0.5553  0.0318  0.0011  0.5755
                                            0.0112 -0.0059 -0.5948  0.0737  0.0016
                                            0.0000  0.0000  0.0000
                ( 59.42%)   0.7709* N   6 s( 35.48%)p 1.82( 64.52%)
                                           -0.0003  0.5956  0.0076 -0.0002 -0.5856
                                           -0.0324 -0.0037  0.5488 -0.0091 -0.0028
                                            0.0000  0.0000  0.0000
    13. (1.97789) BD ( 1) C   5 - H   7  
                ( 61.13%)   0.7819* C   5 s( 29.99%)p 2.33( 70.01%)
                                            0.0006 -0.5470  0.0267  0.0008  0.7949
                                            0.0287  0.0016  0.2593 -0.0094  0.0008
                                            0.0000  0.0000  0.0000
                ( 38.87%)   0.6235* H   7 s(100.00%)
                                           -1.0000 -0.0028 -0.0020
    14. (1.97891) BD ( 1) C  10 - H  11  
                ( 60.93%)   0.7806* C  10 s( 23.99%)p 3.17( 76.01%)
                                           -0.0001  0.4897 -0.0039 -0.0002  0.0736
                                            0.0140 -0.0010  0.5044 -0.0078  0.0000
                                            0.7071  0.0044  0.0031
                ( 39.07%)   0.6250* H  11 s(100.00%)
                                            1.0000  0.0006  0.0006
    15. (1.97891) BD ( 1) C  10 - H  12  
                ( 60.93%)   0.7806* C  10 s( 23.99%)p 3.17( 76.01%)
                                           -0.0001  0.4897 -0.0039 -0.0002  0.0736
                                            0.0140 -0.0010  0.5044 -0.0078  0.0000
                                           -0.7071 -0.0044 -0.0031
                ( 39.07%)   0.6250* H  12 s(100.00%)
                                            1.0000  0.0006  0.0006
    16. (1.98921) BD ( 1) C  10 - H  13  
                ( 60.42%)   0.7773* C  10 s( 24.03%)p 3.16( 75.97%)
                                           -0.0001  0.4901 -0.0039  0.0000 -0.7933
                                            0.0040 -0.0010 -0.3606 -0.0185  0.0004
                                            0.0000  0.0000  0.0000
                ( 39.58%)   0.6292* H  13 s(100.00%)
                                            1.0000  0.0004  0.0005
    17. (1.99902) CR ( 1) C   1           s(100.00%)p 0.00(  0.00%)
                                            1.0000  0.0002  0.0000  0.0000  0.0004
                                            0.0000  0.0000 -0.0005  0.0000  0.0000
                                            0.0000  0.0000  0.0000
    18. (1.99920) CR ( 1) N   2           s(100.00%)p 0.00(  0.00%)
                                            1.0000  0.0003  0.0000  0.0000 -0.0004
                                            0.0000  0.0000 -0.0001  0.0000  0.0000
                                            0.0000  0.0000  0.0000
    19. (1.99859) CR ( 1) C   3           s(100.00%)p 0.00(  0.00%)
                                            1.0000  0.0001  0.0000  0.0000  0.0001
                                            0.0000  0.0000  0.0004  0.0000  0.0000
                                            0.0000  0.0000  0.0000
    20. (1.99890) CR ( 1) C   4           s(100.00%)p 0.00(  0.00%)
                                            1.0000  0.0002  0.0000  0.0000  0.0000
                                            0.0000  0.0000 -0.0002  0.0000  0.0000
                                            0.0000  0.0000  0.0000
    21. (1.99906) CR ( 1) C   5           s(100.00%)p 0.00(  0.00%)
                                            1.0000  0.0002  0.0000  0.0000 -0.0006
                                            0.0000  0.0000 -0.0003  0.0000  0.0000
                                            0.0000  0.0000  0.0000
    22. (1.99934) CR ( 1) N   6           s(100.00%)p 0.00(  0.00%)
                                            1.0000  0.0003  0.0000  0.0000 -0.0001
                                            0.0000  0.0000  0.0002  0.0000  0.0000
                                            0.0000  0.0000  0.0000
    23. (2.00000) CR ( 1)Cl   8           s(100.00%)
                                            1.0000  0.0000  0.0000  0.0000  0.0000
                                            0.0000  0.0000  0.0000  0.0000  0.0000
                                            0.0000  0.0000  0.0000  0.0000  0.0000
                                            0.0000  0.0000  0.0000  0.0000  0.0000
                                            0.0000
    24. (1.99978) CR ( 2)Cl   8           s(100.00%)p 0.00(  0.00%)
                                            0.0000  1.0000  0.0002  0.0000  0.0000
                                            0.0000  0.0000  0.0002  0.0000  0.0000
                                            0.0000  0.0000 -0.0002  0.0000  0.0000
                                            0.0000  0.0000  0.0000  0.0000  0.0000
                                            0.0000
    25. (1.99996) CR ( 3)Cl   8           s(  0.00%)p 1.00(100.00%)
                                            0.0000  0.0000 -0.0001  0.0000  0.0000
                                            0.0000  1.0000  0.0000  0.0000  0.0000
                                            0.0000  0.0000  0.0001  0.0000  0.0000
                                            0.0000  0.0000  0.0000  0.0000  0.0000
                                            0.0000
    26. (1.99996) CR ( 4)Cl   8           s(  0.00%)p 1.00(100.00%)
                                            0.0000  0.0000  0.0001  0.0000  0.0000
                                            0.0000  0.0000  0.0001  0.0000  0.0000
                                            0.0000  1.0000  0.0000  0.0000  0.0000
                                            0.0000  0.0000  0.0000  0.0000  0.0000
                                            0.0000
    27. (1.99999) CR ( 5)Cl   8           s(  0.00%)p 1.00(100.00%)
                                            0.0000  0.0000  0.0000  0.0000  0.0000
                                            0.0000  0.0000  0.0000  0.0000  0.0000
                                            0.0000  0.0000  0.0000  0.0000  0.0000
                                            0.0000  1.0000 -0.0001  0.0000  0.0000
                                            0.0000
    28. (2.00000) CR ( 1)Cl   9           s(100.00%)
                                            1.0000  0.0000  0.0000  0.0000  0.0000
                                            0.0000  0.0000  0.0000  0.0000  0.0000
                                            0.0000  0.0000  0.0000  0.0000  0.0000
                                            0.0000  0.0000  0.0000  0.0000  0.0000
                                            0.0000
    29. (1.99978) CR ( 2)Cl   9           s(100.00%)p 0.00(  0.00%)
                                            0.0000  1.0000  0.0002  0.0000  0.0000
                                            0.0000  0.0000  0.0000  0.0000  0.0000
                                            0.0000  0.0000  0.0003  0.0000  0.0000
                                            0.0000  0.0000  0.0000  0.0000  0.0000
                                            0.0000
    30. (1.99999) CR ( 3)Cl   9           s(  0.00%)p 1.00(100.00%)
                                            0.0000  0.0000  0.0000  0.0000  0.0000
                                            0.0000  1.0000  0.0001  0.0000  0.0000
                                            0.0000  0.0000 -0.0001  0.0000  0.0000
                                            0.0000  0.0000  0.0000  0.0000  0.0000
                                            0.0000
    31. (1.99993) CR ( 4)Cl   9           s(  0.00%)p 1.00(100.00%)
                                            0.0000  0.0000  0.0001  0.0000  0.0000
                                            0.0000  0.0000  0.0001  0.0000  0.0000
                                            0.0000 -1.0000  0.0002  0.0000  0.0000
                                            0.0000  0.0000  0.0000  0.0000  0.0000
                                            0.0000
    32. (1.99999) CR ( 5)Cl   9           s(  0.00%)p 1.00(100.00%)
                                            0.0000  0.0000  0.0000  0.0000  0.0000
                                            0.0000  0.0000  0.0000  0.0000  0.0000
                                            0.0000  0.0000  0.0000  0.0000  0.0000
                                            0.0000  1.0000 -0.0001  0.0000  0.0000
                                            0.0000
    33. (1.99921) CR ( 1) C  10           s(100.00%)p 0.00(  0.00%)
                                            1.0000 -0.0001  0.0000  0.0000 -0.0003
                                            0.0000  0.0000  0.0003  0.0000  0.0000
                                            0.0000  0.0000  0.0000
    34. (1.89320) LP ( 1) N   2           s( 30.13%)p 2.32( 69.87%)
                                            0.0002  0.5489 -0.0070  0.0003  0.8146
                                           -0.0248  0.0023  0.1858 -0.0065  0.0005
                                            0.0000  0.0000  0.0000
    35. (1.90893) LP ( 1) N   6           s( 30.73%)p 2.25( 69.27%)
                                           -0.0001  0.5543 -0.0068  0.0003 -0.1948
                                            0.0043 -0.0015 -0.8087  0.0263 -0.0025
                                            0.0000  0.0000  0.0000
    36. (1.99353) LP ( 1)Cl   8           s( 84.89%)p 0.18( 15.11%)
                                            0.0000 -0.0003  0.9213 -0.0072 -0.0001
                                            0.0000  0.0001  0.2839 -0.0068  0.0008
                                            0.0006 -0.0001 -0.2654  0.0071 -0.0007
                                           -0.0006  0.0000  0.0000  0.0000  0.0000
                                            0.0000
    37. (1.96269) LP ( 2)Cl   8           s(  0.02%)p99.99( 99.98%)
                                            0.0000  0.0000  0.0137  0.0000  0.0000
                                            0.0000  0.0001 -0.7060 -0.0060 -0.0004
                                            0.0001  0.0001 -0.7080 -0.0059 -0.0004
                                            0.0001  0.0000  0.0000  0.0000  0.0000
                                            0.0000
    38. (1.89892) LP ( 3)Cl   8           s(  0.00%)p 1.00(100.00%)
                                            0.0000  0.0000  0.0000  0.0000  0.0000
                                            0.0000  0.0000  0.0000  0.0000  0.0000
                                            0.0000  0.0000  0.0000  0.0000  0.0000
                                            0.0000  0.0001  0.9998  0.0196  0.0003
                                           -0.0003
    39. (1.99261) LP ( 1)Cl   9           s( 84.24%)p 0.19( 15.76%)
                                            0.0000 -0.0003  0.9178 -0.0058  0.0000
                                            0.0000  0.0000  0.1285 -0.0031  0.0010
                                            0.0003  0.0002  0.3755 -0.0098  0.0009
                                            0.0008  0.0000  0.0000  0.0000  0.0000
                                            0.0000
    40. (1.96223) LP ( 2)Cl   9           s(  0.00%)p 1.00(100.00%)
                                            0.0000  0.0000 -0.0040  0.0043 -0.0003
                                            0.0000 -0.0001  0.9491  0.0087  0.0002
                                            0.0000  0.0000 -0.3147  0.0001 -0.0005
                                            0.0000  0.0000  0.0000  0.0000  0.0000
                                            0.0000
    41. (1.90057) LP ( 3)Cl   9           s(  0.00%)p 1.00(100.00%)
                                            0.0000  0.0000  0.0000  0.0000  0.0000
                                            0.0000  0.0000  0.0000  0.0000  0.0000
                                            0.0000  0.0000  0.0000  0.0000  0.0000
                                            0.0000  0.0001  0.9998  0.0181  0.0000
                                           -0.0004
    42. (0.01735) RY*( 1) C   1           s(  0.05%)p99.99( 99.95%)
                                            0.0000  0.0037  0.0211 -0.0017 -0.0481
                                            0.6995 -0.0048 -0.0459  0.7112 -0.0068
                                            0.0000  0.0000  0.0000
    43. (0.00701) RY*( 2) C   1           s(  6.68%)p13.97( 93.32%)
                                            0.0000  0.0197  0.2557 -0.0323 -0.0237
                                           -0.6919 -0.0143  0.0279  0.6729  0.0089
                                            0.0000  0.0000  0.0000
    44. (0.00191) RY*( 3) C   1           s(  0.00%)p 1.00(100.00%)
                                            0.0000  0.0000  0.0000  0.0000  0.0000
                                            0.0000  0.0000  0.0000  0.0000  0.0000
                                            0.0011  1.0000  0.0011
    45. (0.00115) RY*( 4) C   1           s( 92.89%)p 0.08(  7.11%)
                                            0.0000 -0.0060  0.9622  0.0539  0.0140
                                            0.1647  0.0476 -0.0112 -0.1906 -0.0715
                                            0.0000  0.0000  0.0000
    46. (0.00008) RY*( 5) C   1           s( 28.69%)p 2.49( 71.31%)
    47. (0.00003) RY*( 6) C   1           s(  6.60%)p14.14( 93.40%)
    48. (0.00002) RY*( 7) C   1           s( 65.14%)p 0.54( 34.86%)
    49. (0.00001) RY*( 8) C   1           s(  0.00%)p 1.00(100.00%)
    50. (0.00583) RY*( 1) N   2           s( 11.35%)p 7.81( 88.65%)
                                            0.0000 -0.0088  0.3367 -0.0014  0.0366
                                            0.9127 -0.0416  0.0085  0.2242 -0.0070
                                            0.0000  0.0000  0.0000
    51. (0.00193) RY*( 2) N   2           s(  0.08%)p99.99( 99.92%)
                                            0.0000 -0.0018  0.0273 -0.0089 -0.0066
                                            0.2289  0.0149  0.0321 -0.9718 -0.0341
                                            0.0000  0.0000  0.0000
    52. (0.00098) RY*( 3) N   2           s( 85.31%)p 0.17( 14.69%)
                                            0.0000 -0.0024  0.9235  0.0127 -0.0001
                                           -0.3355 -0.1547 -0.0022 -0.0526 -0.0874
                                            0.0000  0.0000  0.0000
    53. (0.00099) RY*( 4) N   2           s(  0.00%)p 1.00(100.00%)
                                            0.0000  0.0000  0.0000  0.0000  0.0000
                                            0.0000  0.0000  0.0000  0.0000  0.0000
                                           -0.0199  0.9998 -0.0097
    54. (0.00014) RY*( 5) N   2           s(  0.56%)p99.99( 99.44%)
                                            0.0000 -0.0016  0.0741 -0.0103  0.0015
                                           -0.0141 -0.0764 -0.0039 -0.0374  0.9935
                                            0.0000  0.0000  0.0000
    55. (0.00003) RY*( 6) N   2           s(  4.04%)p23.77( 95.96%)
    56. (0.00000) RY*( 7) N   2           s( 98.66%)p 0.01(  1.34%)
    57. (0.00000) RY*( 8) N   2           s(  0.00%)p 1.00(100.00%)
    58. (0.01096) RY*( 1) C   3           s(  0.70%)p99.99( 99.30%)
                                            0.0000 -0.0386  0.0691  0.0275 -0.0412
                                            0.9024  0.0074  0.0014 -0.4203 -0.0159
                                            0.0000  0.0000  0.0000
    59. (0.00724) RY*( 2) C   3           s(  0.51%)p99.99( 99.49%)
                                            0.0000  0.0285  0.0600 -0.0270 -0.0013
                                           -0.4226 -0.0181 -0.0336 -0.9026  0.0089
                                            0.0000  0.0000  0.0000
    60. (0.00189) RY*( 3) C   3           s(  0.00%)p 1.00(100.00%)
                                            0.0000  0.0000  0.0000  0.0000  0.0000
                                            0.0000  0.0000  0.0000  0.0000  0.0000
                                           -0.0095  0.9999  0.0076
    61. (0.00155) RY*( 4) C   3           s( 97.87%)p 0.02(  2.13%)
                                            0.0000 -0.0004  0.9893 -0.0098 -0.0125
                                           -0.0386  0.1107  0.0171  0.0815  0.0206
                                            0.0000  0.0000  0.0000
    62. (0.00006) RY*( 5) C   3           s(  8.68%)p10.52( 91.32%)
    63. (0.00004) RY*( 6) C   3           s(  1.27%)p77.53( 98.73%)
    64. (0.00001) RY*( 7) C   3           s( 91.16%)p 0.10(  8.84%)
    65. (0.00000) RY*( 8) C   3           s(  0.00%)p 1.00(100.00%)
    66. (0.00401) RY*( 1) C   4           s(  5.96%)p15.78( 94.04%)
                                            0.0000  0.0082  0.2440  0.0026  0.0210
                                            0.3324  0.0506 -0.0111 -0.9090 -0.0225
                                            0.0000  0.0000  0.0000
    67. (0.00256) RY*( 2) C   4           s( 22.18%)p 3.51( 77.82%)
                                            0.0000  0.0093  0.4709  0.0024 -0.0173
                                            0.7767  0.0077 -0.0146  0.4124 -0.0656
                                            0.0000  0.0000  0.0000
    68. (0.00171) RY*( 3) C   4           s( 69.78%)p 0.43( 30.22%)
                                            0.0000 -0.0130  0.8352 -0.0072 -0.0064
                                           -0.5341  0.0249  0.0139  0.0328 -0.1227
                                            0.0000  0.0000  0.0000
    69. (0.00131) RY*( 4) C   4           s(  0.00%)p 1.00(100.00%)
                                            0.0000  0.0000  0.0000  0.0000  0.0000
                                            0.0000  0.0000  0.0000  0.0000  0.0000
                                            0.0035  0.9972 -0.0746
    70. (0.00024) RY*( 5) C   4           s(  0.85%)p99.99( 99.15%)
                                            0.0000  0.0007 -0.0548  0.0741  0.0020
                                            0.0115 -0.7945  0.0021 -0.0397 -0.5988
                                            0.0000  0.0000  0.0000
    71. (0.00010) RY*( 6) C   4           s(  2.06%)p47.62( 97.94%)
    72. (0.00001) RY*( 7) C   4           s( 99.20%)p 0.01(  0.80%)
    73. (0.00000) RY*( 8) C   4           s(  0.00%)p 1.00(100.00%)
    74. (0.00608) RY*( 1) C   5           s(  0.14%)p99.99( 99.86%)
                                            0.0000 -0.0120  0.0301  0.0189  0.0109
                                           -0.8453 -0.0244  0.0509  0.5293 -0.0260
                                            0.0000  0.0000  0.0000
    75. (0.00458) RY*( 2) C   5           s(  0.76%)p99.99( 99.24%)
                                            0.0000  0.0418  0.0589 -0.0485  0.0450
                                           -0.5274 -0.0433 -0.0278 -0.8402  0.0608
                                            0.0000  0.0000  0.0000
    76. (0.00085) RY*( 3) C   5           s( 96.65%)p 0.03(  3.35%)
                                            0.0000 -0.0097  0.9812 -0.0607 -0.0431
                                            0.0566 -0.0684  0.0062  0.0263 -0.1518
                                            0.0000  0.0000  0.0000
    77. (0.00054) RY*( 4) C   5           s(  0.00%)p 1.00(100.00%)
                                            0.0000  0.0000  0.0000  0.0000  0.0000
                                            0.0000  0.0000  0.0000  0.0000  0.0000
                                           -0.0073  0.9994  0.0325
    78. (0.00014) RY*( 5) C   5           s(  1.78%)p55.19( 98.22%)
                                            0.0000 -0.0064  0.1195  0.0590 -0.0107
                                            0.0305 -0.3384  0.0052  0.0693  0.9283
                                            0.0000  0.0000  0.0000
    79. (0.00003) RY*( 6) C   5           s(  2.45%)p39.80( 97.55%)
    80. (0.00001) RY*( 7) C   5           s( 98.25%)p 0.02(  1.75%)
    81. (0.00000) RY*( 8) C   5           s(  0.00%)p 1.00(100.00%)
    82. (0.00464) RY*( 1) N   6           s(  6.08%)p15.44( 93.92%)
                                            0.0000 -0.0056  0.2465 -0.0012 -0.0112
                                           -0.1785  0.0258 -0.0352 -0.9509  0.0333
                                            0.0000  0.0000  0.0000
    83. (0.00180) RY*( 2) N   6           s(  0.78%)p99.99( 99.22%)
                                            0.0000 -0.0059  0.0876  0.0104  0.0349
                                           -0.9735 -0.0225 -0.0117  0.2056  0.0206
                                            0.0000  0.0000  0.0000
    84. (0.00078) RY*( 3) N   6           s( 86.20%)p 0.16( 13.80%)
                                            0.0000 -0.0018  0.9284  0.0104 -0.0034
                                            0.1291  0.2291 -0.0009  0.2274  0.1311
                                            0.0000  0.0000  0.0000
    85. (0.00065) RY*( 4) N   6           s(  0.00%)p 1.00(100.00%)
                                            0.0000  0.0000  0.0000  0.0000  0.0000
                                            0.0000  0.0000  0.0000  0.0000  0.0000
                                           -0.0168  0.9995 -0.0281
    86. (0.00008) RY*( 5) N   6           s(  5.19%)p18.27( 94.81%)
    87. (0.00002) RY*( 6) N   6           s(  2.68%)p36.29( 97.32%)
    88. (0.00000) RY*( 7) N   6           s( 99.07%)p 0.01(  0.93%)
    89. (0.00000) RY*( 8) N   6           s(  0.00%)p 1.00(100.00%)
    90. (0.00135) RY*( 1) H   7           s(100.00%)
                                           -0.0029  1.0000  0.0044
    91. (0.00033) RY*( 2) H   7           s(100.00%)
                                           -0.0020 -0.0044  1.0000
    92. (0.00163) RY*( 1)Cl   8           s(  0.00%)p 1.00(100.00%)
                                            0.0000  0.0000  0.0000  0.0000  0.0000
                                            0.0000  0.0000  0.0000  0.0000  0.0000
                                            0.0000  0.0000  0.0000  0.0000  0.0000
                                            0.0000  0.0000 -0.0196  0.9995  0.0211
                                            0.0151
    93. (0.00086) RY*( 2)Cl   8           s( 28.35%)p 2.53( 71.65%)
                                            0.0000  0.0000 -0.0110  0.5319 -0.0214
                                            0.0049  0.0000  0.0398  0.6262 -0.1791
                                           -0.0116  0.0000 -0.0410 -0.5066  0.1789
                                            0.0146  0.0000  0.0000  0.0000  0.0000
                                            0.0000
    94. (0.00082) RY*( 3)Cl   8           s(  0.62%)p99.99( 99.38%)
                                            0.0000  0.0000 -0.0010  0.0785 -0.0015
                                            0.0009  0.0000  0.0096 -0.6730 -0.0029
                                           -0.0228  0.0000  0.0022 -0.7335  0.0411
                                           -0.0243  0.0000  0.0000  0.0000  0.0000
                                            0.0000
    95. (0.00012) RY*( 4)Cl   8           s( 33.79%)p 1.96( 66.21%)
                                            0.0000  0.0000  0.0028  0.5768 -0.0722
                                            0.0079  0.0000 -0.0064 -0.3754 -0.4167
                                            0.0450  0.0000  0.0062  0.4300  0.3992
                                           -0.0346  0.0000  0.0000  0.0000  0.0000
                                            0.0000
    96. (0.00002) RY*( 5)Cl   8           s( 18.51%)p 4.40( 81.49%)
    97. (0.00002) RY*( 6)Cl   8           s( 20.56%)p 3.86( 79.44%)
    98. (0.00000) RY*( 7)Cl   8           s( 97.72%)p 0.02(  2.28%)
    99. (0.00000) RY*( 8)Cl   8           s(100.00%)p 0.00(  0.00%)
   100. (0.00000) RY*( 9)Cl   8           s(  0.20%)p99.99( 99.80%)
   101. (0.00000) RY*(10)Cl   8           s(  0.14%)p99.99( 99.86%)
   102. (0.00000) RY*(11)Cl   8           s(  0.00%)p 1.00(100.00%)
   103. (0.00000) RY*(12)Cl   8           s(  0.00%)p 1.00(100.00%)
   104. (0.00196) RY*( 1)Cl   9           s(  0.00%)p 1.00(100.00%)
                                            0.0000  0.0000  0.0000  0.0000  0.0000
                                            0.0000  0.0000  0.0000  0.0000  0.0000
                                            0.0000  0.0000  0.0000  0.0000  0.0000
                                            0.0000  0.0000 -0.0181  0.9993  0.0301
                                            0.0126
   105. (0.00121) RY*( 2)Cl   9           s(  8.77%)p10.40( 91.23%)
                                            0.0000  0.0000 -0.0045  0.2961  0.0070
                                            0.0025  0.0000 -0.0006  0.9380 -0.0035
                                            0.0158  0.0000  0.0281  0.1665 -0.0561
                                           -0.0211  0.0000  0.0000  0.0000  0.0000
                                            0.0000
   106. (0.00077) RY*( 3)Cl   9           s( 14.19%)p 6.05( 85.81%)
                                            0.0000  0.0000 -0.0083  0.3764 -0.0125
                                            0.0035  0.0000  0.0145 -0.2838 -0.0051
                                           -0.0107  0.0000  0.0418  0.8617 -0.1810
                                           -0.0098  0.0000  0.0000  0.0000  0.0000
                                            0.0000
   107. (0.00010) RY*( 4)Cl   9           s( 54.05%)p 0.85( 45.95%)
                                            0.0000  0.0000  0.0010  0.7351  0.0108
                                            0.0070  0.0000 -0.0028 -0.1741 -0.0430
                                            0.0189  0.0000 -0.0027 -0.4714 -0.4476
                                            0.0664  0.0000  0.0000  0.0000  0.0000
                                            0.0000
   108. (0.00002) RY*( 5)Cl   9           s( 26.35%)p 2.80( 73.65%)
   109. (0.00000) RY*( 6)Cl   9           s(  0.03%)p99.99( 99.97%)
   110. (0.00000) RY*( 7)Cl   9           s(100.00%)p 0.00(  0.00%)
   111. (0.00000) RY*( 8)Cl   9           s( 96.46%)p 0.04(  3.54%)
   112. (0.00000) RY*( 9)Cl   9           s(  0.03%)p99.99( 99.97%)
   113. (0.00000) RY*(10)Cl   9           s(  0.06%)p99.99( 99.94%)
   114. (0.00000) RY*(11)Cl   9           s(  0.00%)p 1.00(100.00%)
   115. (0.00000) RY*(12)Cl   9           s(  0.00%)p 1.00(100.00%)
   116. (0.00326) RY*( 1) C  10           s(  1.12%)p88.46( 98.88%)
                                            0.0000  0.0044  0.1056  0.0018  0.0098
                                           -0.7669  0.0579  0.0068 -0.6284  0.0475
                                            0.0000  0.0000  0.0000
   117. (0.00102) RY*( 2) C  10           s(  0.00%)p 1.00(100.00%)
                                            0.0000  0.0000  0.0000  0.0000  0.0000
                                            0.0000  0.0000  0.0000  0.0000  0.0000
                                           -0.0068  0.9868  0.1619
   118. (0.00072) RY*( 3) C  10           s( 34.42%)p 1.91( 65.58%)
                                            0.0000  0.0152  0.5852 -0.0386 -0.0178
                                           -0.4549 -0.0656  0.0151  0.6562  0.1157
                                            0.0000  0.0000  0.0000
   119. (0.00014) RY*( 4) C  10           s( 31.53%)p 2.17( 68.47%)
                                            0.0000 -0.0038  0.5471  0.1265 -0.0010
                                            0.2190  0.5039  0.0003 -0.1734 -0.5940
                                            0.0000  0.0000  0.0000
   120. (0.00006) RY*( 5) C  10           s( 35.00%)p 1.86( 65.00%)
   121. (0.00000) RY*( 6) C  10           s(  0.28%)p99.99( 99.72%)
   122. (0.00000) RY*( 7) C  10           s( 97.68%)p 0.02(  2.32%)
   123. (0.00000) RY*( 8) C  10           s(  0.00%)p 1.00(100.00%)
   124. (0.00127) RY*( 1) H  11           s(100.00%)
                                           -0.0006  1.0000  0.0002
   125. (0.00013) RY*( 2) H  11           s(100.00%)
                                           -0.0006 -0.0002  1.0000
   126. (0.00127) RY*( 1) H  12           s(100.00%)
                                           -0.0006  1.0000  0.0002
   127. (0.00013) RY*( 2) H  12           s(100.00%)
[...]
     Eigenvalues ---    0.16110   0.17224   0.19240   0.19966   0.22293
     Eigenvalues ---    0.23510   0.25556   0.30943   0.33077   0.33264
     Eigenvalues ---    0.33968   0.34408   0.35862   0.42408   0.43016
     Eigenvalues ---    0.50215   0.51313   0.56272
 Angle between quadratic step and forces=  20.25 degrees.
 Linear search not attempted -- first point.
 Iteration  1 RMS(Cart)=  0.00042279 RMS(Int)=  0.00000020
 Iteration  2 RMS(Cart)=  0.00000027 RMS(Int)=  0.00000005
 ClnCor:  largest displacement from symmetrization is 3.13D-11 for atom    12.
 Variable       Old X    -DE/DX   Delta X   Delta X   Delta X     New X
                                 (Linear)    (Quad)   (Total)
    R1        2.52408   0.00037   0.00000   0.00162   0.00162   2.52571
    R2        2.51282  -0.00020   0.00000  -0.00089  -0.00089   2.51193
    R3        3.40580  -0.00030   0.00000  -0.00190  -0.00190   3.40390
    R4        2.50344  -0.00004   0.00000  -0.00057  -0.00057   2.50287
    R5        2.64926   0.00007   0.00000   0.00057   0.00057   2.64984
    R6        3.43869   0.00006   0.00000   0.00064   0.00064   3.43933
    R7        2.64912  -0.00020   0.00000  -0.00099  -0.00099   2.64813
    R8        2.83377   0.00017   0.00000   0.00073   0.00073   2.83450
    R9        2.55564   0.00023   0.00000   0.00085   0.00085   2.55649
   R10        2.04195  -0.00003   0.00000  -0.00012  -0.00012   2.04183
   R11        2.06276  -0.00005   0.00000  -0.00021  -0.00021   2.06255
   R12        2.06276  -0.00005   0.00000  -0.00021  -0.00021   2.06255
   R13        2.05844  -0.00002   0.00000  -0.00009  -0.00009   2.05835
    A1        2.19795  -0.00009   0.00000  -0.00048  -0.00048   2.19747
    A2        2.03739  -0.00003   0.00000  -0.00053  -0.00053   2.03685
    A3        2.04785   0.00012   0.00000   0.00101   0.00101   2.04886
    A4        2.03955  -0.00003   0.00000  -0.00028  -0.00028   2.03927
    A5        2.16153   0.00005   0.00000   0.00048   0.00048   2.16201
    A6        2.03264  -0.00001   0.00000  -0.00003  -0.00003   2.03262
    A7        2.08901  -0.00004   0.00000  -0.00045  -0.00045   2.08856
    A8        1.98730  -0.00002   0.00000  -0.00016  -0.00016   1.98714
    A9        2.16370  -0.00004   0.00000  -0.00030  -0.00030   2.16339
   A10        2.13219   0.00006   0.00000   0.00046   0.00046   2.13265
   A11        2.15268   0.00004   0.00000  -0.00005  -0.00005   2.15263
   A12        2.10696   0.00002   0.00000   0.00059   0.00059   2.10755
   A13        2.02355  -0.00005   0.00000  -0.00055  -0.00055   2.02301
   A14        2.02736   0.00005   0.00000   0.00049   0.00049   2.02785
   A15        1.94176  -0.00005   0.00000  -0.00047  -0.00047   1.94129
   A16        1.94176  -0.00005   0.00000  -0.00047  -0.00047   1.94129
   A17        1.93320  -0.00006   0.00000  -0.00056  -0.00056   1.93264
   A18        1.86700   0.00006   0.00000   0.00069   0.00069   1.86769
   A19        1.88881   0.00005   0.00000   0.00045   0.00045   1.88926
   A20        1.88881   0.00005   0.00000   0.00045   0.00045   1.88926
    D1        0.00000   0.00000   0.00000   0.00000   0.00000   0.00000
    D2        3.14159   0.00000   0.00000   0.00000   0.00000   3.14159
    D3        0.00000   0.00000   0.00000   0.00000   0.00000   0.00000
    D4        3.14159   0.00000   0.00000   0.00000   0.00000   3.14159
    D5        0.00000   0.00000   0.00000   0.00000   0.00000   0.00000
    D6        3.14159   0.00000   0.00000   0.00000   0.00000   3.14159
    D7        0.00000   0.00000   0.00000   0.00000   0.00000   0.00000
    D8        3.14159   0.00000   0.00000   0.00000   0.00000   3.14159
    D9        3.14159   0.00000   0.00000   0.00000   0.00000   3.14159
   D10        0.00000   0.00000   0.00000   0.00000   0.00000   0.00000
   D11        0.00000   0.00000   0.00000   0.00000   0.00000   0.00000
   D12        3.14159   0.00000   0.00000   0.00000   0.00000   3.14159
   D13        3.14159   0.00000   0.00000   0.00000   0.00000   3.14159
   D14        0.00000   0.00000   0.00000   0.00000   0.00000   0.00000
   D15       -1.03992  -0.00001   0.00000  -0.00013  -0.00013  -1.04005
   D16        1.03992   0.00001   0.00000   0.00013   0.00013   1.04005
   D17        3.14159   0.00000   0.00000   0.00000   0.00000   3.14159
   D18        2.10167  -0.00001   0.00000  -0.00013  -0.00013   2.10154
   D19       -2.10167   0.00001   0.00000   0.00013   0.00013  -2.10154
   D20        0.00000   0.00000   0.00000   0.00000   0.00000   0.00000
   D21        0.00000   0.00000   0.00000   0.00000   0.00000   0.00000
   D22        3.14159   0.00000   0.00000   0.00000   0.00000   3.14159
         Item               Value     Threshold  Converged?
 Maximum Force            0.000368     0.000450     YES
 RMS     Force            0.000092     0.000300     YES
 Maximum Displacement     0.001305     0.001800     YES
 RMS     Displacement     0.000423     0.001200     YES
 Predicted change in Energy=-1.258606D-06
 Optimization completed.
    -- Stationary point found.
                           ----------------------------
                           !   Optimized Parameters   !
                           ! (Angstroms and Degrees)  !
 --------------------------                            --------------------------
 ! Name  Definition              Value          Derivative Info.                !
 --------------------------------------------------------------------------------
 ! R1    R(1,2)                  1.3357         -DE/DX =    0.0004              !
 ! R2    R(1,6)                  1.3297         -DE/DX =   -0.0002              !
 ! R3    R(1,8)                  1.8023         -DE/DX =   -0.0003              !
 ! R4    R(2,3)                  1.3248         -DE/DX =    0.0                 !
 ! R5    R(3,4)                  1.4019         -DE/DX =    0.0001              !
 ! R6    R(3,9)                  1.8197         -DE/DX =    0.0001              !
 ! R7    R(4,5)                  1.4019         -DE/DX =   -0.0002              !
 ! R8    R(4,10)                 1.4996         -DE/DX =    0.0002              !
 ! R9    R(5,6)                  1.3524         -DE/DX =    0.0002              !
 ! R10   R(5,7)                  1.0806         -DE/DX =    0.0                 !
 ! R11   R(10,11)                1.0916         -DE/DX =   -0.0001              !
 ! R12   R(10,12)                1.0916         -DE/DX =   -0.0001              !
 ! R13   R(10,13)                1.0893         -DE/DX =    0.0                 !
 ! A1    A(2,1,6)              125.9333         -DE/DX =   -0.0001              !
 ! A2    A(2,1,8)              116.7336         -DE/DX =    0.0                 !
 ! A3    A(6,1,8)              117.3331         -DE/DX =    0.0001              !
 ! A4    A(1,2,3)              116.8576         -DE/DX =    0.0                 !
 ! A5    A(2,3,4)              123.8468         -DE/DX =    0.0001              !
 ! A6    A(2,3,9)              116.4618         -DE/DX =    0.0                 !
 ! A7    A(4,3,9)              119.6914         -DE/DX =    0.0                 !
 ! A8    A(3,4,5)              113.8637         -DE/DX =    0.0                 !
 ! A9    A(3,4,10)             123.9706         -DE/DX =    0.0                 !
 ! A10   A(5,4,10)             122.1657         -DE/DX =    0.0001              !
 ! A11   A(4,5,6)              123.3394         -DE/DX =    0.0                 !
 ! A12   A(4,5,7)              120.7196         -DE/DX =    0.0                 !
 ! A13   A(6,5,7)              115.9409         -DE/DX =   -0.0001              !
 ! A14   A(1,6,5)              116.1592         -DE/DX =    0.0001              !
 ! A15   A(4,10,11)            111.2546         -DE/DX =   -0.0001              !
 ! A16   A(4,10,12)            111.2546         -DE/DX =   -0.0001              !
 ! A17   A(4,10,13)            110.7645         -DE/DX =   -0.0001              !
 ! A18   A(11,10,12)           106.9711         -DE/DX =    0.0001              !
 ! A19   A(11,10,13)           108.2207         -DE/DX =    0.0001              !
 ! A20   A(12,10,13)           108.2207         -DE/DX =    0.0001              !
 ! D1    D(6,1,2,3)              0.0            -DE/DX =    0.0                 !
 ! D2    D(8,1,2,3)            180.0            -DE/DX =    0.0                 !
 ! D3    D(2,1,6,5)              0.0            -DE/DX =    0.0                 !
 ! D4    D(8,1,6,5)            180.0            -DE/DX =    0.0                 !
 ! D5    D(1,2,3,4)              0.0            -DE/DX =    0.0                 !
 ! D6    D(1,2,3,9)            180.0            -DE/DX =    0.0                 !
 ! D7    D(2,3,4,5)              0.0            -DE/DX =    0.0                 !
 ! D8    D(2,3,4,10)           180.0            -DE/DX =    0.0                 !
 ! D9    D(9,3,4,5)            180.0            -DE/DX =    0.0                 !
 ! D10   D(9,3,4,10)             0.0            -DE/DX =    0.0                 !
 ! D11   D(3,4,5,6)              0.0            -DE/DX =    0.0                 !
 ! D12   D(3,4,5,7)            180.0            -DE/DX =    0.0                 !
 ! D13   D(10,4,5,6)           180.0            -DE/DX =    0.0                 !
 ! D14   D(10,4,5,7)             0.0            -DE/DX =    0.0                 !
 ! D15   D(3,4,10,11)          -59.5833         -DE/DX =    0.0                 !
 ! D16   D(3,4,10,12)           59.5833         -DE/DX =    0.0                 !
 ! D17   D(3,4,10,13)          180.0            -DE/DX =    0.0                 !
 ! D18   D(5,4,10,11)          120.4167         -DE/DX =    0.0                 !
 ! D19   D(5,4,10,12)         -120.4167         -DE/DX =    0.0                 !
 ! D20   D(5,4,10,13)            0.0            -DE/DX =    0.0                 !
 ! D21   D(4,5,6,1)              0.0            -DE/DX =    0.0                 !
 ! D22   D(7,5,6,1)            180.0            -DE/DX =    0.0                 !
 --------------------------------------------------------------------------------
 GradGradGradGradGradGradGradGradGradGradGradGradGradGradGradGradGradGrad

 1|1|UNPC-DESKTOP-KC5UJLK|Freq|RB3LYP|6-311G|C5H4Cl2N2|23122|01-Apr-202
 2|0||#N Geom=AllCheck Guess=TCheck SCRF=Check GenChk RB3LYP/6-311G Fre
 q||Energy Calculation(GC)||0,1|C,-1.4080269092,0.0986398887,0.|N,-0.43
 96794286,-0.8213413271,0.|C,0.8082494207,-0.3767376601,0.|C,1.15303540
 53,0.9821322187,0.|C,0.0498798921,1.847143952,0.|N,-1.2321732783,1.416
 6893619,0.|H,0.1886996803,2.9187438877,0.|Cl,-3.1044538166,-0.50989213
 52,0.|Cl,2.1187902116,-1.6391601994,0.|C,2.5645386941,1.4884526258,0.|
 H,3.1109117131,1.1372551017,0.8772995192|H,3.1109117131,1.1372551017,-
 0.8772995192|H,2.5841396527,2.5775542229,0.||Version=IA32W-G09RevD.01|
 State=1-A'|HF=-1222.816463|RMSD=6.997e-009|RMSF=1.897e-004|ZeroPoint=0
 .0845825|Thermal=0.0927322|Dipole=1.4191127,1.2136507,0.|DipoleDeriv=2
 .1105026,0.3983387,0.,0.543061,0.6530465,0.,0.,0.,0.1504502,-1.518795,
 0.0864571,0.,0.0988659,-0.4230786,0.,0.,0.,-0.1555014,1.2675792,-0.672
 5838,0.,-0.6811006,1.0137376,0.,0.,0.,0.0627609,0.0191866,0.4040484,0.
 ,0.3726254,-0.5799684,0.,0.,0.,0.0672485,0.4743095,-0.2830904,0.,0.113
 7859,0.4815499,0.,0.,0.,0.008621,-0.918564,-0.0279959,0.,-0.5142848,-0
 .628877,0.,0.,0.,-0.2053915,0.052027,-0.0398037,0.,-0.0496093,-0.05716
 09,0.,0.,0.,0.1119562,-0.8757027,-0.2276098,0.,-0.2871428,-0.1566346,0
 .,0.,0.,-0.0851287,-0.5590099,0.3927094,0.,0.444914,-0.4652831,0.,0.,0
 .,-0.093474,-0.134555,-0.0423802,0.,0.0178821,0.1642869,0.,0.,0.,0.075
 7119,0.0097545,-0.0212234,-0.0510924,0.0011812,0.0651546,0.0697347,-0.
 0724101,0.038553,-0.0197202,0.0097545,-0.0212234,0.0510924,0.0011812,0
 .0651546,-0.0697347,0.0724101,-0.038553,-0.0197202,0.0635127,0.0543571
 ,0.,-0.0613594,-0.1319275,0.,0.,0.,0.1021873|Polar=129.3260511,0.71456
 53,89.5141651,0.,0.,36.243929|PG=CS [SG(C5H2Cl2N2),X(H2)]|NImag=0||0.5
 2879648,-0.00857518,0.56217024,0.,0.,0.15900937,-0.19514108,0.09205910
 ,0.,0.63960999,0.09255818,-0.17019635,0.,-0.05345933,0.34743487,0.,0.,
 -0.07580668,0.,0.,0.08688028,-0.11854489,0.06109388,0.,-0.29535392,-0.
 06110897,0.,0.56522279,0.01339928,0.04983639,0.,-0.07991140,-0.1207541
 6,0.,0.06422077,0.54562948,0.,0.,0.00598657,0.,0.,-0.06542047,0.,0.,0.
 13873318,-0.00146856,0.02781519,0.,-0.00289789,-0.04414479,0.,-0.12384
 698,-0.07373837,0.,0.67386615,0.02481478,-0.07465043,0.,-0.08940962,0.
 00332990,0.,-0.01698306,-0.27052328,0.,0.01413408,0.62545988,0.,0.,-0.
 00925178,0.,0.,0.01889239,0.,0.,-0.07146212,0.,0.,0.16793604,-0.006875
 53,-0.10661081,0.,-0.08247586,0.02774591,0.,0.06133876,0.07447776,0.,-
 0.22407686,0.04646178,0.,0.61701339,-0.05722324,-0.05185511,0.,0.00466
 554,0.00237844,0.,0.02344396,-0.05085529,0.,0.11538154,-0.20804834,0.,
 0.03153515,0.77078344,0.,0.,0.00726610,0.,0.,-0.00555567,0.,0.,0.00527
 970,0.,0.,-0.06932602,0.,0.,0.15619315,-0.11133144,-0.03661475,0.,0.04
 716017,0.01730876,0.,-0.02974190,-0.04015054,0.,-0.06662969,0.04532951
 ,0.,-0.28313191,-0.07824021,0.,0.48037748,-0.03060214,-0.28064861,0.,0
 .09114240,-0.07661908,0.,-0.06280759,-0.05313017,0.,-0.00879294,0.0684
 9706,0.,-0.06062345,-0.13112971,0.,0.12909555,0.50630542,0.,0.,-0.0793
 8610,0.,0.,0.03497388,0.,0.,-0.00597745,0.,0.,0.01917597,0.,0.,-0.0651
 1752,0.,0.,0.09098914,-0.00286333,-0.00379931,0.,-0.00019733,-0.000570
 45,0.,-0.00326778,0.00228018,0.,0.00448001,0.02436343,0.,-0.05551190,-
 0.02484647,0.,-0.01378042,-0.03543933,0.,0.07056067,0.00065144,0.00294
 671,0.,0.00090167,0.00036688,0.,0.00150089,-0.00012569,0.,-0.00575924,
 -0.01355731,0.,-0.02599951,-0.33914699,0.,-0.00799980,-0.00557674,0.,0
 .03633330,0.35420783,0.,0.,0.01011730,0.,0.,-0.00366757,0.,0.,0.008281
 43,0.,0.,0.00776840,0.,0.,-0.04268320,0.,0.,-0.00278639,0.,0.,0.026552
 21,-0.10088485,-0.02703526,0.,-0.05427158,0.00549431,0.,0.00605512,-0.
 00299934,0.,-0.00284097,-0.00116796,0.,0.00338447,0.00357625,0.,-0.020
 79609,-0.02649271,0.,-0.00067930,-0.00030937,0.,0.17280651,-0.02717617
 ,-0.03457161,0.,0.01517818,0.00592937,0.,0.00146701,-0.00265394,0.,-0.
 00182610,0.00187854,0.,0.00333565,0.00031738,0.,-0.03728194,-0.0273006
 4,0.,-0.00076150,-0.00024839,0.,0.04794718,0.05574513,0.,0.,-0.0257126
 6,0.,0.,0.00286568,0.,0.,0.00542251,0.,0.,-0.00044316,0.,0.,0.00547199
 ,0.,0.,0.00296012,0.,0.,0.00029698,0.,0.,0.01047392,0.00886644,0.00045
 415,0.,-0.05977312,0.01333428,0.,-0.04772184,0.04744301,0.,-0.01034777
 ,0.00766415,0.,0.00510720,-0.00183607,0.,-0.00405440,0.00289227,0.,-0.
 00041786,0.00039015,0.,-0.00167030,-0.00026998,0.,0.10746376,-0.009038
 42,-0.00142814,0.,0.01897247,0.01259767,0.,0.02633467,-0.08626275,0.,0
 .03188972,-0.02624317,0.,-0.00974508,-0.00279415,0.,0.00474836,0.00120
 117,0.,0.00157773,-0.00079698,0.,0.00123912,0.00054773,0.,-0.06690640,
 0.10620368,0.,0.,0.00710181,0.,0.,0.00019642,0.,0.,-0.02400290,0.,0.,0
 .00627584,0.,0.,0.00529282,0.,0.,-0.00311837,0.,0.,-0.00093143,0.,0.,0
 .00018902,0.,0.,0.01029618,-0.00178047,0.00029819,0.,0.00443135,0.0042
 9478,0.,-0.00734687,-0.01084941,0.,-0.19920036,-0.03767435,0.,-0.03250
 755,-0.00856283,0.,0.00359505,0.00174236,0.,0.00182994,-0.00073190,0.,
 -0.00033452,-0.00030285,0.,0.00013812,0.00206757,0.,0.49528140,0.00124
 667,-0.00247275,0.,-0.00180021,-0.00446963,0.,-0.03202563,-0.01177952,
 0.,-0.04474532,-0.10368793,0.,0.01775879,0.01131243,0.,0.00426762,-0.0
 0180688,0.,0.00193248,0.00068558,0.,0.00028038,0.00054200,0.,-0.003223
 17,-0.00186650,0.,-0.02500748,0.57520910,0.,0.,0.00062453,0.,0.,0.0069
 3429,0.,0.,0.00040083,0.,0.,-0.07428582,0.,0.,0.00392791,0.,0.,0.00921
 472,0.,0.,-0.00357103,0.,0.,-0.00162516,0.,0.,-0.00160304,0.,0.,0.5370
 5815,0.00043076,0.00058046,0.00009105,-0.00035622,0.00006091,0.0010103
 3,-0.00019148,0.00288002,0.00011256,-0.02190816,0.00899623,-0.02583206
 ,-0.00171219,-0.00278472,-0.00074487,-0.00126040,-0.00021367,0.0016007
 3,0.00000767,0.00001055,-0.00051660,-0.00033898,-0.00019381,-0.0002807
 1,0.00100484,-0.00083952,-0.00012600,-0.10689011,0.04001279,-0.1027231
 4,0.12286122,-0.00038357,0.00018779,0.00009021,0.00093575,0.00025113,0
 .00070026,-0.00219545,0.00024706,-0.00020100,-0.00536371,0.00373237,-0
 .01175359,-0.00065673,-0.00061341,0.00001773,0.00020192,0.00003652,0.0
 0035200,-0.00014257,0.00019736,0.00022532,-0.00015128,-0.00008110,-0.0
 0011198,0.00023890,-0.00056600,-0.00028383,0.03921222,-0.07567883,0.06
 924846,-0.04318495,0.07947808,0.00012822,-0.00001210,-0.00008053,0.000
 04453,-0.00015011,-0.00018956,-0.00122348,0.00107924,0.00085790,0.0018
 7768,-0.00151455,0.00325698,0.00064625,-0.00003414,-0.00036241,0.00016
 371,-0.00020217,-0.00033485,0.00007543,-0.00007941,0.00015784,-0.00005
 131,-0.00002461,0.00005224,0.00086472,-0.00006601,0.00003478,-0.102840
 24,0.06858188,-0.21422033,0.11269969,-0.07641285,0.23377065,0.00043076
 ,0.00058046,-0.00009105,-0.00035622,0.00006091,-0.00101033,-0.00019148
 ,0.00288002,-0.00011256,-0.02190816,0.00899623,0.02583206,-0.00171219,
 -0.00278472,0.00074487,-0.00126040,-0.00021367,-0.00160073,0.00000767,
 0.00001055,0.00051660,-0.00033898,-0.00019381,0.00028071,0.00100484,-0
 .00083952,0.00012600,-0.10689011,0.04001279,0.10272314,0.00818611,-0.0
 0511476,-0.01389179,0.12286122,-0.00038357,0.00018779,-0.00009021,0.00
 093575,0.00025113,-0.00070026,-0.00219545,0.00024706,0.00020100,-0.005
 36371,0.00373237,0.01175359,-0.00065673,-0.00061341,-0.00001773,0.0002
 0192,0.00003652,-0.00035200,-0.00014257,0.00019736,-0.00022532,-0.0001
 5128,-0.00008110,0.00011198,0.00023890,-0.00056600,0.00028383,0.039212
 22,-0.07567883,-0.06924846,-0.00511476,0.00297829,0.01006845,-0.043184
 95,0.07947808,-0.00012822,0.00001209,-0.00008053,-0.00004453,0.0001501
 1,-0.00018956,0.00122348,-0.00107924,0.00085790,-0.00187768,0.00151455
 ,0.00325698,-0.00064625,0.00003414,-0.00036241,-0.00016371,0.00020217,
 -0.00033485,-0.00007543,0.00007941,0.00015784,0.00005131,0.00002461,0.
 00005224,-0.00086472,0.00006601,0.00003478,0.10284024,-0.06858188,-0.2
 1422033,0.01389179,-0.01006845,-0.02361538,-0.11269969,0.07641285,0.23
 377065,0.00036571,-0.00024612,0.,-0.00037830,-0.00157450,0.,-0.0064095
 4,0.00006802,0.,-0.00322076,-0.03552518,0.,0.00116017,-0.00232419,0.,0
 .00085396,0.00031295,0.,-0.00016803,0.00100126,0.,-0.00009052,0.000078
 14,0.,0.00040009,0.00053930,0.,-0.05032587,0.00129030,0.,0.00016693,0.
 01660422,0.00150658,0.00016693,0.01660422,-0.00150658,0.05747924,0.000
 71194,0.00049409,0.,-0.00021030,-0.00050017,0.,-0.00074504,0.00012481,
 0.,0.00051365,-0.00991967,0.,0.00297726,0.00026471,0.,-0.00086639,0.00
 013514,0.,-0.00078493,0.00085038,0.,-0.00023001,-0.00002337,0.,-0.0004
 2019,-0.00002657,0.,-0.00369851,-0.31030825,0.,-0.00020953,-0.01016927
 ,-0.00123361,-0.00020953,-0.01016927,0.00123361,0.00317159,0.33924744,
 0.,0.,0.00021260,0.,0.,0.00008657,0.,0.,0.00104292,0.,0.,-0.00179370,0
 .,0.,-0.00002445,0.,0.,-0.00025830,0.,0.,0.00030764,0.,0.,-0.00000371,
 0.,0.,0.00023408,0.,0.,-0.04863472,0.00081722,0.02819773,0.00067268,-0
 .00081722,-0.02819773,0.00067268,0.,0.,0.04748570||0.00065653,-0.00039
 542,0.,-0.00032432,0.00026624,0.,0.00013699,0.00001122,0.,0.00026131,-
 0.00019882,0.,-0.00039501,0.00006537,0.,0.00013926,0.00027608,0.,0.000
 04287,0.00003015,0.,-0.00030183,-0.00005343,0.,-0.00005107,0.00003062,
 0.,-0.00037294,-0.00004778,0.,0.00007418,-0.00000222,0.00001750,0.0000
 7418,-0.00000222,-0.00001750,0.00005984,0.00002022,0.|||@


 Happiness is a conscious choice, not an automatic response.
 -- Mildred Barthel
 Job cpu time:       0 days  0 hours  2 minutes 12.0 seconds.
 File lengths (MBytes):  RWF=     40 Int=      0 D2E=      0 Chk=      3 Scr=      1
 Normal termination of Gaussian 09 at Fri Apr 01 16:05:57 2022.
