Energy Calculation(GC)                                                  
Freq      RB3LYP                                                      6-311G              
Number of atoms                            I               13
Info1-9                                    I   N=           9
          23          22        1002           0           0         100
           6          18        -502
Charge                                     I                0
Multiplicity                               I                1
Number of electrons                        I               82
Number of alpha electrons                  I               41
Number of beta electrons                   I               41
Number of basis functions                  I              145
Number of independent functions            I              145
Number of point charges in /Mol/           I                0
Number of translation vectors              I                0
Atomic numbers                             I   N=          13
           6           7           6           6           6           7
           1          17          17           6           1           1
           1
Nuclear charges                            R   N=          13
  6.00000000E+00  7.00000000E+00  6.00000000E+00  6.00000000E+00  6.00000000E+00
  7.00000000E+00  1.00000000E+00  1.70000000E+01  1.70000000E+01  6.00000000E+00
  1.00000000E+00  1.00000000E+00  1.00000000E+00
Current cartesian coordinates              R   N=          39
  9.25665424E-01 -2.49092126E+00  0.00000000E+00  1.74518968E+00 -1.03583388E-01
  0.00000000E+00  1.11022302E-16  1.69127807E+00  0.00000000E+00 -2.60616055E+00
  1.21534221E+00  0.00000000E+00 -3.22523262E+00 -1.36042895E+00  0.00000000E+00
 -1.47752631E+00 -3.22505412E+00  0.00000000E+00 -5.17580937E+00 -1.96442916E+00
  0.00000000E+00  3.30518069E+00 -4.92758956E+00  0.00000000E+00  1.13892289E+00
  4.93588343E+00  0.00000000E+00 -4.58601448E+00  3.24276390E+00  0.00000000E+00
 -4.41210587E+00  4.45777689E+00  1.65785583E+00 -4.41210587E+00  4.45777689E+00
 -1.65785583E+00 -6.47292996E+00  2.42013822E+00  0.00000000E+00
Force Field                                I                0
Int Atom Types                             I   N=          13
           0           0           0           0           0           0
           0           0           0           0           0           0
           0
MM charges                                 R   N=          13
  0.00000000E+00  0.00000000E+00  0.00000000E+00  0.00000000E+00  0.00000000E+00
  0.00000000E+00  0.00000000E+00  0.00000000E+00  0.00000000E+00  0.00000000E+00
  0.00000000E+00  0.00000000E+00  0.00000000E+00
Integer atomic weights                     I   N=          13
          12          14          12          12          12          14
           1          35          35          12           1           1
           1
Real atomic weights                        R   N=          13
  1.20000000E+01  1.40030740E+01  1.20000000E+01  1.20000000E+01  1.20000000E+01
  1.40030740E+01  1.00782504E+00  3.49688527E+01  3.49688527E+01  1.20000000E+01
  1.00782504E+00  1.00782504E+00  1.00782504E+00
Atom fragment info                         I   N=          13
           0           0           0           0           0           0
           0           0           0           0           0           0
           0
Atom residue num                           I   N=          13
           0           0           0           0           0           0
           0           0           0           0           0           0
           0
Nuclear spins                              I   N=          13
           0           2           0           0           0           2
           1           3           3           0           1           1
           1
Nuclear ZEff                               R   N=          13
 -3.60000000E+00 -4.55000000E+00 -3.60000000E+00 -3.60000000E+00 -3.60000000E+00
 -4.55000000E+00 -1.00000000E+00 -1.42400000E+01 -1.42400000E+01 -3.60000000E+00
 -1.00000000E+00 -1.00000000E+00 -1.00000000E+00
Nuclear ZNuc                               R   N=          13
  6.00000000E+00  7.00000000E+00  6.00000000E+00  6.00000000E+00  6.00000000E+00
  7.00000000E+00  1.00000000E+00  1.70000000E+01  1.70000000E+01  6.00000000E+00
  1.00000000E+00  1.00000000E+00  1.00000000E+00
Nuclear QMom                               R   N=          13
  0.00000000E+00  2.04400000E+00  0.00000000E+00  0.00000000E+00  0.00000000E+00
  2.04400000E+00  0.00000000E+00 -8.16500000E+00 -8.16500000E+00  0.00000000E+00
  0.00000000E+00  0.00000000E+00  0.00000000E+00
Nuclear GFac                               R   N=          13
  0.00000000E+00  4.03761000E-01  0.00000000E+00  0.00000000E+00  0.00000000E+00
  4.03761000E-01  2.79284600E+00  8.21874000E-01  8.21874000E-01  0.00000000E+00
  2.79284600E+00  2.79284600E+00  2.79284600E+00
MicOpt                                     I   N=          13
          -1          -1          -1          -1          -1          -1
          -1          -1          -1          -1          -1          -1
          -1
Number of contracted shells                I               62
Number of primitive shells                 I              143
Pure/Cartesian d shells                    I                0
Pure/Cartesian f shells                    I                0
Highest angular momentum                   I                1
Largest degree of contraction              I                6
Shell types                                I   N=          62
           0          -1          -1          -1           0          -1
          -1          -1           0          -1          -1          -1
           0          -1          -1          -1           0          -1
          -1          -1           0          -1          -1          -1
           0           0           0           0           0           0
           0           0           0           1           1           1
           1           1           0           0           0           0
           0           0           1           1           1           1
           1           0          -1          -1          -1           0
           0           0           0           0           0           0
           0           0
Number of primitives per shell             I   N=          62
           6           3           1           1           6           3
           1           1           6           3           1           1
           6           3           1           1           6           3
           1           1           6           3           1           1
           3           1           1           6           3           1
           1           1           1           5           2           1
           1           1           6           3           1           1
           1           1           5           2           1           1
           1           6           3           1           1           3
           1           1           3           1           1           3
           1           1
Shell to atom map                          I   N=          62
           1           1           1           1           2           2
           2           2           3           3           3           3
           4           4           4           4           5           5
           5           5           6           6           6           6
           7           7           7           8           8           8
           8           8           8           8           8           8
           8           8           9           9           9           9
           9           9           9           9           9           9
           9          10          10          10          10          11
          11          11          12          12          12          13
          13          13
Primitive exponents                        R   N=         143
  4.56324000E+03  6.82024000E+02  1.54973000E+02  4.44553000E+01  1.30290000E+01
  1.82773000E+00  2.09642000E+01  4.80331000E+00  1.45933000E+00  4.83456000E-01
  1.45585000E-01  6.29348000E+03  9.49044000E+02  2.18776000E+02  6.36916000E+01
  1.88282000E+01  2.72023000E+00  3.06331000E+01  7.02614000E+00  2.11205000E+00
  6.84009000E-01  2.00878000E-01  4.56324000E+03  6.82024000E+02  1.54973000E+02
  4.44553000E+01  1.30290000E+01  1.82773000E+00  2.09642000E+01  4.80331000E+00
  1.45933000E+00  4.83456000E-01  1.45585000E-01  4.56324000E+03  6.82024000E+02
  1.54973000E+02  4.44553000E+01  1.30290000E+01  1.82773000E+00  2.09642000E+01
  4.80331000E+00  1.45933000E+00  4.83456000E-01  1.45585000E-01  4.56324000E+03
  6.82024000E+02  1.54973000E+02  4.44553000E+01  1.30290000E+01  1.82773000E+00
  2.09642000E+01  4.80331000E+00  1.45933000E+00  4.83456000E-01  1.45585000E-01
  6.29348000E+03  9.49044000E+02  2.18776000E+02  6.36916000E+01  1.88282000E+01
  2.72023000E+00  3.06331000E+01  7.02614000E+00  2.11205000E+00  6.84009000E-01
  2.00878000E-01  3.38650000E+01  5.09479000E+00  1.15879000E+00  3.25840000E-01
  1.02741000E-01  1.05819000E+05  1.58720000E+04  3.61965000E+03  1.03080000E+03
  3.39908000E+02  1.24538000E+02  1.24538000E+02  4.95135000E+01  2.08056000E+01
  6.58346000E+00  2.56468000E+00  5.59763000E-01  1.83273000E-01  5.89776000E+02
  1.39849000E+02  4.51413000E+01  1.68733000E+01  2.77152000E+00  6.74110000E+00
  2.77152000E+00  1.02387000E+00  3.81368000E-01  1.09437000E-01  1.05819000E+05
  1.58720000E+04  3.61965000E+03  1.03080000E+03  3.39908000E+02  1.24538000E+02
  1.24538000E+02  4.95135000E+01  2.08056000E+01  6.58346000E+00  2.56468000E+00
  5.59763000E-01  1.83273000E-01  5.89776000E+02  1.39849000E+02  4.51413000E+01
  1.68733000E+01  2.77152000E+00  6.74110000E+00  2.77152000E+00  1.02387000E+00
  3.81368000E-01  1.09437000E-01  4.56324000E+03  6.82024000E+02  1.54973000E+02
  4.44553000E+01  1.30290000E+01  1.82773000E+00  2.09642000E+01  4.80331000E+00
  1.45933000E+00  4.83456000E-01  1.45585000E-01  3.38650000E+01  5.09479000E+00
  1.15879000E+00  3.25840000E-01  1.02741000E-01  3.38650000E+01  5.09479000E+00
  1.15879000E+00  3.25840000E-01  1.02741000E-01  3.38650000E+01  5.09479000E+00
  1.15879000E+00  3.25840000E-01  1.02741000E-01
Contraction coefficients                   R   N=         143
  1.96665025E-03  1.52306019E-02  7.61269097E-02  2.60801033E-01  6.16462078E-01
  2.21006028E-01  1.14660081E-01  9.19999648E-01 -3.03068213E-03  1.00000000E+00
  1.00000000E+00  1.96978815E-03  1.49612859E-02  7.35005308E-02  2.48936766E-01
  6.02459433E-01  2.56201759E-01  1.11906080E-01  9.21666655E-01 -2.56919183E-03
  1.00000000E+00  1.00000000E+00  1.96665025E-03  1.52306019E-02  7.61269097E-02
  2.60801033E-01  6.16462078E-01  2.21006028E-01  1.14660081E-01  9.19999648E-01
 -3.03068213E-03  1.00000000E+00  1.00000000E+00  1.96665025E-03  1.52306019E-02
  7.61269097E-02  2.60801033E-01  6.16462078E-01  2.21006028E-01  1.14660081E-01
  9.19999648E-01 -3.03068213E-03  1.00000000E+00  1.00000000E+00  1.96665025E-03
  1.52306019E-02  7.61269097E-02  2.60801033E-01  6.16462078E-01  2.21006028E-01
  1.14660081E-01  9.19999648E-01 -3.03068213E-03  1.00000000E+00  1.00000000E+00
  1.96978815E-03  1.49612859E-02  7.35005308E-02  2.48936766E-01  6.02459433E-01
  2.56201759E-01  1.11906080E-01  9.21666655E-01 -2.56919183E-03  1.00000000E+00
  1.00000000E+00  2.54938145E-02  1.90373109E-01  8.52161486E-01  1.00000000E+00
  1.00000000E+00  7.38000247E-04  5.71800191E-03  2.94950099E-02  1.17286039E-01
  3.62949121E-01  5.84149195E-01  1.34176973E-01  6.24249876E-01  2.91755942E-01
  1.00000000E+00  1.00000000E+00  1.00000000E+00  1.00000000E+00  3.66556935E-03
  2.83679194E-02  1.24756603E-01  3.39654631E-01  7.47585963E-01 -1.57224381E+00
  9.92388882E-01  1.00000000E+00  1.00000000E+00  1.00000000E+00  7.38000247E-04
  5.71800191E-03  2.94950099E-02  1.17286039E-01  3.62949121E-01  5.84149195E-01
  1.34176973E-01  6.24249876E-01  2.91755942E-01  1.00000000E+00  1.00000000E+00
  1.00000000E+00  1.00000000E+00  3.66556935E-03  2.83679194E-02  1.24756603E-01
  3.39654631E-01  7.47585963E-01 -1.57224381E+00  9.92388882E-01  1.00000000E+00
  1.00000000E+00  1.00000000E+00  1.96665025E-03  1.52306019E-02  7.61269097E-02
  2.60801033E-01  6.16462078E-01  2.21006028E-01  1.14660081E-01  9.19999648E-01
 -3.03068213E-03  1.00000000E+00  1.00000000E+00  2.54938145E-02  1.90373109E-01
  8.52161486E-01  1.00000000E+00  1.00000000E+00  2.54938145E-02  1.90373109E-01
  8.52161486E-01  1.00000000E+00  1.00000000E+00  2.54938145E-02  1.90373109E-01
  8.52161486E-01  1.00000000E+00  1.00000000E+00
P(S=P) Contraction coefficients            R   N=         143
  0.00000000E+00  0.00000000E+00  0.00000000E+00  0.00000000E+00  0.00000000E+00
  0.00000000E+00  4.02486927E-02  2.37593957E-01  8.15853851E-01  1.00000000E+00
  1.00000000E+00  0.00000000E+00  0.00000000E+00  0.00000000E+00  0.00000000E+00
  0.00000000E+00  0.00000000E+00  3.83119186E-02  2.37403116E-01  8.17592398E-01
  1.00000000E+00  1.00000000E+00  0.00000000E+00  0.00000000E+00  0.00000000E+00
  0.00000000E+00  0.00000000E+00  0.00000000E+00  4.02486927E-02  2.37593957E-01
  8.15853851E-01  1.00000000E+00  1.00000000E+00  0.00000000E+00  0.00000000E+00
  0.00000000E+00  0.00000000E+00  0.00000000E+00  0.00000000E+00  4.02486927E-02
  2.37593957E-01  8.15853851E-01  1.00000000E+00  1.00000000E+00  0.00000000E+00
  0.00000000E+00  0.00000000E+00  0.00000000E+00  0.00000000E+00  0.00000000E+00
  4.02486927E-02  2.37593957E-01  8.15853851E-01  1.00000000E+00  1.00000000E+00
  0.00000000E+00  0.00000000E+00  0.00000000E+00  0.00000000E+00  0.00000000E+00
  0.00000000E+00  3.83119186E-02  2.37403116E-01  8.17592398E-01  1.00000000E+00
  1.00000000E+00  0.00000000E+00  0.00000000E+00  0.00000000E+00  0.00000000E+00
  0.00000000E+00  0.00000000E+00  0.00000000E+00  0.00000000E+00  0.00000000E+00
  0.00000000E+00  0.00000000E+00  0.00000000E+00  0.00000000E+00  0.00000000E+00
  0.00000000E+00  0.00000000E+00  0.00000000E+00  0.00000000E+00  0.00000000E+00
  0.00000000E+00  0.00000000E+00  0.00000000E+00  0.00000000E+00  0.00000000E+00
  0.00000000E+00  0.00000000E+00  0.00000000E+00  0.00000000E+00  0.00000000E+00
  0.00000000E+00  0.00000000E+00  0.00000000E+00  0.00000000E+00  0.00000000E+00
  0.00000000E+00  0.00000000E+00  0.00000000E+00  0.00000000E+00  0.00000000E+00
  0.00000000E+00  0.00000000E+00  0.00000000E+00  0.00000000E+00  0.00000000E+00
  0.00000000E+00  0.00000000E+00  0.00000000E+00  0.00000000E+00  0.00000000E+00
  0.00000000E+00  0.00000000E+00  0.00000000E+00  0.00000000E+00  0.00000000E+00
  0.00000000E+00  0.00000000E+00  0.00000000E+00  4.02486927E-02  2.37593957E-01
  8.15853851E-01  1.00000000E+00  1.00000000E+00  0.00000000E+00  0.00000000E+00
  0.00000000E+00  0.00000000E+00  0.00000000E+00  0.00000000E+00  0.00000000E+00
  0.00000000E+00  0.00000000E+00  0.00000000E+00  0.00000000E+00  0.00000000E+00
  0.00000000E+00  0.00000000E+00  0.00000000E+00
Coordinates of each shell                  R   N=         186
  9.25665424E-01 -2.49092126E+00  0.00000000E+00  9.25665424E-01 -2.49092126E+00
  0.00000000E+00  9.25665424E-01 -2.49092126E+00  0.00000000E+00  9.25665424E-01
 -2.49092126E+00  0.00000000E+00  1.74518968E+00 -1.03583388E-01  0.00000000E+00
  1.74518968E+00 -1.03583388E-01  0.00000000E+00  1.74518968E+00 -1.03583388E-01
  0.00000000E+00  1.74518968E+00 -1.03583388E-01  0.00000000E+00  1.11022302E-16
  1.69127807E+00  0.00000000E+00  1.11022302E-16  1.69127807E+00  0.00000000E+00
  1.11022302E-16  1.69127807E+00  0.00000000E+00  1.11022302E-16  1.69127807E+00
  0.00000000E+00 -2.60616055E+00  1.21534221E+00  0.00000000E+00 -2.60616055E+00
  1.21534221E+00  0.00000000E+00 -2.60616055E+00  1.21534221E+00  0.00000000E+00
 -2.60616055E+00  1.21534221E+00  0.00000000E+00 -3.22523262E+00 -1.36042895E+00
  0.00000000E+00 -3.22523262E+00 -1.36042895E+00  0.00000000E+00 -3.22523262E+00
 -1.36042895E+00  0.00000000E+00 -3.22523262E+00 -1.36042895E+00  0.00000000E+00
 -1.47752631E+00 -3.22505412E+00  0.00000000E+00 -1.47752631E+00 -3.22505412E+00
  0.00000000E+00 -1.47752631E+00 -3.22505412E+00  0.00000000E+00 -1.47752631E+00
 -3.22505412E+00  0.00000000E+00 -5.17580937E+00 -1.96442916E+00  0.00000000E+00
 -5.17580937E+00 -1.96442916E+00  0.00000000E+00 -5.17580937E+00 -1.96442916E+00
  0.00000000E+00  3.30518069E+00 -4.92758956E+00  0.00000000E+00  3.30518069E+00
 -4.92758956E+00  0.00000000E+00  3.30518069E+00 -4.92758956E+00  0.00000000E+00
  3.30518069E+00 -4.92758956E+00  0.00000000E+00  3.30518069E+00 -4.92758956E+00
  0.00000000E+00  3.30518069E+00 -4.92758956E+00  0.00000000E+00  3.30518069E+00
 -4.92758956E+00  0.00000000E+00  3.30518069E+00 -4.92758956E+00  0.00000000E+00
  3.30518069E+00 -4.92758956E+00  0.00000000E+00  3.30518069E+00 -4.92758956E+00
  0.00000000E+00  3.30518069E+00 -4.92758956E+00  0.00000000E+00  1.13892289E+00
  4.93588343E+00  0.00000000E+00  1.13892289E+00  4.93588343E+00  0.00000000E+00
  1.13892289E+00  4.93588343E+00  0.00000000E+00  1.13892289E+00  4.93588343E+00
  0.00000000E+00  1.13892289E+00  4.93588343E+00  0.00000000E+00  1.13892289E+00
  4.93588343E+00  0.00000000E+00  1.13892289E+00  4.93588343E+00  0.00000000E+00
  1.13892289E+00  4.93588343E+00  0.00000000E+00  1.13892289E+00  4.93588343E+00
  0.00000000E+00  1.13892289E+00  4.93588343E+00  0.00000000E+00  1.13892289E+00
  4.93588343E+00  0.00000000E+00 -4.58601448E+00  3.24276390E+00  0.00000000E+00
 -4.58601448E+00  3.24276390E+00  0.00000000E+00 -4.58601448E+00  3.24276390E+00
  0.00000000E+00 -4.58601448E+00  3.24276390E+00  0.00000000E+00 -4.41210587E+00
  4.45777689E+00  1.65785583E+00 -4.41210587E+00  4.45777689E+00  1.65785583E+00
 -4.41210587E+00  4.45777689E+00  1.65785583E+00 -4.41210587E+00  4.45777689E+00
 -1.65785583E+00 -4.41210587E+00  4.45777689E+00 -1.65785583E+00 -4.41210587E+00
  4.45777689E+00 -1.65785583E+00 -6.47292996E+00  2.42013822E+00  0.00000000E+00
 -6.47292996E+00  2.42013822E+00  0.00000000E+00 -6.47292996E+00  2.42013822E+00
  0.00000000E+00
Constraint Structure                       R   N=          39
  9.25665424E-01 -2.49092126E+00  0.00000000E+00  1.74518968E+00 -1.03583388E-01
  0.00000000E+00  1.11022302E-16  1.69127807E+00  0.00000000E+00 -2.60616055E+00
  1.21534221E+00  0.00000000E+00 -3.22523262E+00 -1.36042895E+00  0.00000000E+00
 -1.47752631E+00 -3.22505412E+00  0.00000000E+00 -5.17580937E+00 -1.96442916E+00
  0.00000000E+00  3.30518069E+00 -4.92758956E+00  0.00000000E+00  1.13892289E+00
  4.93588343E+00  0.00000000E+00 -4.58601448E+00  3.24276390E+00  0.00000000E+00
 -4.41210587E+00  4.45777689E+00  1.65785583E+00 -4.41210587E+00  4.45777689E+00
 -1.65785583E+00 -6.47292996E+00  2.42013822E+00  0.00000000E+00
Num ILSW                                   I              100
ILSW                                       I   N=         100
           0           0           0           0           2           0
           0           0           0           0         402          -1
           0           0           0           0           2           0
           0           0           1           0           1           0
           1           0           0           0           0           0
           0           0      100000           0          -1           0
           0           0           0           0           0           0
           0           0           0           1           0           0
           0           0           1           0           0           0
           0           0           4          41           0           0
           0           0           5           0           0           0
           0           0           0           0           0           0
           0           0           0           0           0           0
           0           0           0           0           0           0
           0           0           0           0           0           0
           0           0           0           0           0           0
           0           0           0           0
Num RLSW                                   I               41
RLSW                                       R   N=          41
  8.00000000E-01  7.20000000E-01  1.00000000E+00  8.10000000E-01  2.00000000E-01
  0.00000000E+00  0.00000000E+00  1.00000000E+00  0.00000000E+00  0.00000000E+00
  0.00000000E+00  0.00000000E+00  1.00000000E+00  0.00000000E+00  0.00000000E+00
  0.00000000E+00  0.00000000E+00  1.00000000E+00  0.00000000E+00  0.00000000E+00
  0.00000000E+00  0.00000000E+00  1.00000000E+00  0.00000000E+00  0.00000000E+00
  0.00000000E+00  0.00000000E+00  1.00000000E+00  0.00000000E+00  0.00000000E+00
  0.00000000E+00  0.00000000E+00  1.00000000E+00  0.00000000E+00  0.00000000E+00
  0.00000000E+00  0.00000000E+00  0.00000000E+00  1.00000000E+00  1.00000000E+00
  0.00000000E+00
MxBond                                     I                4
NBond                                      I   N=          13
           3           2           3           3           3           2
           1           1           1           4           1           1
           1
IBond                                      I   N=          52
           2           6           8           0           1           3
           0           0           2           4           9           0
           3           5          10           0           4           6
           7           0           1           5           0           0
           5           0           0           0           1           0
           0           0           3           0           0           0
           4          11          12          13          10           0
           0           0          10           0           0           0
          10           0           0           0
RBond                                      R   N=          52
  1.50000000E+00  1.50000000E+00  1.00000000E+00  0.00000000E+00  1.50000000E+00
  1.50000000E+00  0.00000000E+00  0.00000000E+00  1.50000000E+00  1.50000000E+00
  1.00000000E+00  0.00000000E+00  1.50000000E+00  1.50000000E+00  1.00000000E+00
  0.00000000E+00  1.50000000E+00  1.50000000E+00  1.00000000E+00  0.00000000E+00
  1.50000000E+00  1.50000000E+00  0.00000000E+00  0.00000000E+00  1.00000000E+00
  0.00000000E+00  0.00000000E+00  0.00000000E+00  1.00000000E+00  0.00000000E+00
  0.00000000E+00  0.00000000E+00  1.00000000E+00  0.00000000E+00  0.00000000E+00
  0.00000000E+00  1.00000000E+00  1.00000000E+00  1.00000000E+00  1.00000000E+00
  1.00000000E+00  0.00000000E+00  0.00000000E+00  0.00000000E+00  1.00000000E+00
  0.00000000E+00  0.00000000E+00  0.00000000E+00  1.00000000E+00  0.00000000E+00
  0.00000000E+00  0.00000000E+00
Virial Ratio                               R      2.002553441052253E+00
SCF Energy                                 R     -1.222816463012488E+03
Total Energy                               R     -1.222816463012488E+03
RMS Force                                  R      1.896900538920539E-04
RMS Density                                R      6.997145255192952E-09
External E-field                           R   N=          35
  0.00000000E+00  0.00000000E+00  0.00000000E+00  0.00000000E+00  0.00000000E+00
  0.00000000E+00  0.00000000E+00  0.00000000E+00  0.00000000E+00  0.00000000E+00
  0.00000000E+00  0.00000000E+00  0.00000000E+00  0.00000000E+00  0.00000000E+00
  0.00000000E+00  0.00000000E+00  0.00000000E+00  0.00000000E+00  0.00000000E+00
  0.00000000E+00  0.00000000E+00  0.00000000E+00  0.00000000E+00  0.00000000E+00
  0.00000000E+00  0.00000000E+00  0.00000000E+00  0.00000000E+00  0.00000000E+00
  0.00000000E+00  0.00000000E+00  0.00000000E+00  0.00000000E+00  0.00000000E+00
IOpCl                                      I                0
IROHF                                      I                0
Alpha Orbital Energies                     R   N=         145
 -1.00305426E+02 -1.00287791E+02 -1.41900342E+01 -1.41876064E+01 -1.04597581E+01
 -1.04536717E+01 -1.02348743E+01 -1.02094961E+01 -1.01389251E+01 -1.01166521E+01
 -1.00680078E+01 -7.25523339E+00 -7.24707404E+00 -7.24666533E+00 -7.24020776E+00
 -7.23989855E+00 -7.23543488E+00 -9.73612682E-01 -9.53828303E-01 -9.30514080E-01
 -9.25117805E-01 -9.19156167E-01 -8.74660549E-01 -7.92258708E-01 -7.66102178E-01
 -7.09309355E-01 -7.08303591E-01 -6.87228247E-01 -5.74813852E-01 -5.41174907E-01
 -5.36554712E-01 -5.36554712E-01 -3.72695013E-01 -3.71890587E-01 -3.70857553E-01
 -3.68701286E-01 -3.41787999E-01 -3.41169930E-01 -3.29342077E-01 -3.26245664E-01
 -3.12593694E-01 -7.01997680E-02 -6.96221996E-02 -3.18201155E-02  2.33693421E-02
  3.95430540E-02  3.62204587E-01  3.62204587E-01  3.62504830E-01  3.62721227E-01
  3.82685939E-01  4.30908743E-01  4.34420260E-01  4.47005565E-01  4.51292535E-01
  4.74882704E-01  4.80064385E-01  3.19735133E-01  3.27732870E-01  3.51051649E-01
  4.47215174E-01  4.68578908E-01  4.72093140E-01  5.07532181E-01  5.25223944E-01
  5.30686149E-01  5.35331995E-01  5.41493567E-01  5.93761913E-01  5.93761913E-01
  6.02517758E-01  6.48373978E-01  6.99379928E-01  7.01157198E-01  7.01945549E-01
  7.05297059E-01  7.07327290E-01  7.07893416E-01  7.27032752E-01  7.43766698E-01
  7.50452847E-01  7.59556531E-01  7.82293683E-01  8.54530503E-01  9.02862004E-01
  9.33848081E-01  9.72499262E-01  9.76588995E-01  9.91297092E-01  1.05935008E+00
  1.06702890E+00  1.09485198E+00  1.17875904E+00  1.25392186E+00  1.26155487E+00
  1.55668198E+00  1.70348855E+00  1.74834515E+00  1.87078746E+00  1.87078746E+00
  1.93887569E+00  2.19334144E+00  2.21461376E+00  2.43534275E+00  1.00000000E+03
  1.00000000E+03  1.00000000E+03  1.00000000E+03  1.00000000E+03  1.00000000E+03
  1.00000000E+03  1.00000000E+03  1.00000000E+03  1.00000000E+03  1.00000000E+03
  1.00000000E+03  1.00000000E+03  1.00000000E+03  1.00000000E+03  1.00000000E+03
  1.00000000E+03  1.00000000E+03  1.00000000E+03  1.00000000E+03  1.00000000E+03
  1.00000000E+03  1.00000000E+03  1.00000000E+03  1.00000000E+03  1.00000000E+03
  1.00000000E+03  1.00000000E+03  1.00000000E+03  1.00000000E+03  1.00000000E+03
  1.00000000E+03  1.00000000E+03  1.00000000E+03  1.00000000E+03  1.00000000E+03
  1.00000000E+03  1.00000000E+03  1.00000000E+03  1.00000000E+03  1.00000000E+03
Alpha MO coefficients                      R   N=       21025
  2.35498136E-06 -3.16589221E-06  5.10491710E-07  4.78557845E-06  2.75213136E-17
  2.91062216E-05  1.39358653E-05  4.57719848E-06  2.38600163E-17 -8.13963013E-06
  6.94833708E-05 -2.12693781E-05 -4.35604299E-17  5.84237734E-07  4.46660310E-06
  1.42465475E-05  1.87039359E-05 -1.21129364E-17 -2.17187808E-05  1.93634378E-05
  2.30940257E-05 -1.80126952E-17 -1.20244531E-04  6.71008477E-05  1.05249052E-04
  1.82307541E-17 -9.41213146E-06 -2.90754356E-05 -4.25011212E-06 -1.25409393E-05
 -2.48941644E-17  8.11640650E-05 -1.90852439E-05 -5.05768681E-05 -3.89312746E-17
  1.32545605E-04 -1.79490896E-04 -4.22951853E-04 -1.67173739E-17 -5.09629057E-06
  7.34171551E-06 -6.85582428E-07  9.82276247E-06  1.94512930E-17 -2.69679665E-05
 -1.52143723E-05  4.35316515E-05  4.78643669E-17 -1.61228102E-04 -1.75635096E-04
  2.66018721E-04  7.41688329E-17  4.78873589E-06 -7.58136271E-06 -3.10599983E-06
  3.73858462E-06 -8.61889142E-19  2.61628488E-05 -1.42408183E-06  1.43514682E-05
  4.25127227E-18  1.29194528E-04  1.43410209E-05  2.23839208E-05  1.61978074E-17
 -2.40186330E-07 -1.03297149E-06  1.11037554E-06  5.63982334E-07  3.59192931E-17
  4.47397914E-06  2.84682471E-07  4.85307961E-07  5.50641787E-17  2.70970287E-05
  1.36281349E-05  4.65366443E-06  2.89144593E-17  3.11560254E-07 -7.96533840E-06
 -1.76573651E-06 -1.47776396E-07 -5.38500289E-07  1.47559273E-06  1.02452360E-06
 -1.96875985E-06 -2.66070119E-05 -4.26739000E-07  3.86676701E-07  1.05017585E-18
  5.81914187E-07 -8.64003318E-07  2.22425433E-19  1.05700199E-06 -9.14070411E-07
 -1.85499606E-18  5.23201305E-06 -7.21218716E-06  6.16738438E-19  3.73434330E-06
 -7.37661493E-06  6.84407967E-19  4.23050421E-01  6.87907970E-01 -4.34340674E-02
 -7.54963221E-02 -5.79478549E-03  7.17886411E-04 -9.05761117E-07 -5.98187101E-07
 -4.54316635E-19 -1.57858046E-06 -5.75021186E-06  5.84942209E-19  3.40112268E-07
 -2.43227407E-06  2.26782915E-19 -1.27864135E-05 -4.74751927E-05  3.45080001E-18
 -2.97548876E-05 -8.33154270E-05  6.51159972E-19 -3.54890269E-06  1.68737731E-06
  8.34391417E-06  4.97060606E-06 -4.92048701E-17  3.06791881E-06  2.75507432E-06
  2.74952103E-05 -1.60854707E-16 -1.88499669E-04 -3.79111512E-05  5.35933457E-05
 -1.99993846E-16 -8.12896584E-07 -3.16908058E-06 -7.06726102E-07 -8.12896584E-07
 -3.16908058E-06 -7.06726102E-07  3.30981404E-06  1.74527202E-05  1.47542556E-06
 -1.20726539E-05 -2.30763548E-05 -2.33986508E-06  2.25081391E-06  5.62836941E-17
  7.03605751E-05 -4.00594072E-05  4.10768738E-05  1.06590829E-16 -7.97835135E-06
 -2.00644461E-04  2.07378928E-04  1.12670410E-16  1.72149422E-07  4.29820786E-06
  1.78888631E-05 -1.11678110E-05  2.03758057E-17 -2.24510580E-05  2.66978205E-05
 -1.57448132E-05  3.35045026E-17 -5.99826483E-05  7.00146375E-05 -5.12666784E-05
  5.98037180E-17  1.84851499E-06 -2.24080990E-06  3.01650957E-06 -1.55526362E-06
 -2.92039129E-17  2.43606700E-05  8.59038702E-06  3.06776572E-07 -6.73335648E-17
 -2.53385625E-05  4.24172828E-05  5.00411249E-05 -1.39779612E-16  1.99947430E-06
 -2.60122166E-06 -2.09677521E-07 -1.79310846E-07 -1.84522407E-17  6.71721725E-06