 Entering Link 1 = C:\G09W\l1.exe PID=      1916.
  
 Copyright (c) 1988,1990,1992,1993,1995,1998,2003,2009,2013,
            Gaussian, Inc.  All Rights Reserved.
  
 This is part of the Gaussian(R) 09 program.  It is based on
 the Gaussian(R) 03 system (copyright 2003, Gaussian, Inc.),
 the Gaussian(R) 98 system (copyright 1998, Gaussian, Inc.),
 the Gaussian(R) 94 system (copyright 1995, Gaussian, Inc.),
 the Gaussian 92(TM) system (copyright 1992, Gaussian, Inc.),
 the Gaussian 90(TM) system (copyright 1990, Gaussian, Inc.),
 the Gaussian 88(TM) system (copyright 1988, Gaussian, Inc.),
 the Gaussian 86(TM) system (copyright 1986, Carnegie Mellon
 University), and the Gaussian 82(TM) system (copyright 1983,
 Carnegie Mellon University). Gaussian is a federally registered
 trademark of Gaussian, Inc.
  
 This software contains proprietary and confidential information,
 including trade secrets, belonging to Gaussian, Inc.
  
 This software is provided under written license and may be
 used, copied, transmitted, or stored only in accord with that
 written license.
  
 The following legend is applicable only to US Government
 contracts under FAR:
  
                    RESTRICTED RIGHTS LEGEND
  
 Use, reproduction and disclosure by the US Government is
 subject to restrictions as set forth in subparagraphs (a)
 and (c) of the Commercial Computer Software - Restricted
 Rights clause in FAR 52.227-19.
  
 Gaussian, Inc.
 340 Quinnipiac St., Bldg. 40, Wallingford CT 06492
  
  
 ---------------------------------------------------------------
 Warning -- This program may not be used in any manner that
 competes with the business of Gaussian, Inc. or will provide
 assistance to any competitor of Gaussian, Inc.  The licensee
 of this program is prohibited from giving any competitor of
 Gaussian, Inc. access to this program.  By using this program,
 the user acknowledges that Gaussian, Inc. is engaged in the
 business of creating and licensing software in the field of
 computational chemistry and represents and warrants to the
 licensee that it is not a competitor of Gaussian, Inc. and that
 it will not use this program in any manner prohibited above.
 ---------------------------------------------------------------
  

 Cite this work as:
 Gaussian 09, Revision D.01,
 M. J. Frisch, G. W. Trucks, H. B. Schlegel, G. E. Scuseria, 
 M. A. Robb, J. R. Cheeseman, G. Scalmani, V. Barone, B. Mennucci, 
 G. A. Petersson, H. Nakatsuji, M. Caricato, X. Li, H. P. Hratchian, 
 A. F. Izmaylov, J. Bloino, G. Zheng, J. L. Sonnenberg, M. Hada, 
 M. Ehara, K. Toyota, R. Fukuda, J. Hasegawa, M. Ishida, T. Nakajima, 
 Y. Honda, O. Kitao, H. Nakai, T. Vreven, J. A. Montgomery, Jr., 
 J. E. Peralta, F. Ogliaro, M. Bearpark, J. J. Heyd, E. Brothers, 
 K. N. Kudin, V. N. Staroverov, T. Keith, R. Kobayashi, J. Normand, 
 K. Raghavachari, A. Rendell, J. C. Burant, S. S. Iyengar, J. Tomasi, 
 M. Cossi, N. Rega, J. M. Millam, M. Klene, J. E. Knox, J. B. Cross, 
 V. Bakken, C. Adamo, J. Jaramillo, R. Gomperts, R. E. Stratmann, 
 O. Yazyev, A. J. Austin, R. Cammi, C. Pomelli, J. W. Ochterski, 
 R. L. Martin, K. Morokuma, V. G. Zakrzewski, G. A. Voth, 
 P. Salvador, J. J. Dannenberg, S. Dapprich, A. D. Daniels, 
 O. Farkas, J. B. Foresman, J. V. Ortiz, J. Cioslowski, 
 and D. J. Fox, Gaussian, Inc., Wallingford CT, 2013.
 
 ******************************************
 Gaussian 09:  IA32W-G09RevD.01 24-Apr-2013
                01-Apr-2022 
 ******************************************
 %nprocshared=4
 Will use up to    4 processors via shared memory.
 %mem=1GB
 %chk=D:\mindmap\gaussian\calculate\opt_freq\QM1\NMR.chk
 --------------------------------------------
 # opt freq NMR b3lyp/6-21g geom=connectivity
 --------------------------------------------
 1/14=-1,18=20,19=15,26=3,38=1,57=2/1,3;
 2/9=110,12=2,17=6,18=5,40=1/2;
 3/5=5,6=6,11=2,16=1,25=1,30=1,71=1,74=-5/1,2,3;
 4//1;
 5/5=2,38=5/2;
 6/7=2,8=2,9=2,10=2,28=1/1;
 7//1,2,3,16;
 1/14=-1,18=20,19=15,26=3/3(2);
 2/9=110/2;
 99//99;
 2/9=110/2;
 3/5=5,6=6,11=2,16=1,25=1,30=1,71=1,74=-5/1,2,3;
 4/5=5,16=3,69=1/1;
 5/5=2,38=5/2;
 7//1,2,3,16;
 1/14=-1,18=20,19=15,26=3/3(-5);
 2/9=110/2;
 6/7=2,8=2,9=2,10=2,19=2,28=1/1;
 99/9=1/99;
 ----------------------
 Energy Calculation(GC)
 ----------------------
 Symbolic Z-matrix:
 Charge =  0 Multiplicity = 1
 C                    -1.4104    0.08457   0. 
 N                    -0.43264  -0.86232   0. 
 C                     0.83472  -0.39869   0. 
 C                     1.13303   0.97771   0. 
 C                     0.03969   1.86541   0. 
 N                    -1.23931   1.43492   0. 
 H                     0.18768   2.9601    0. 
 Cl                   -3.07099  -0.49857   0. 
 Cl                    2.1092   -1.61248   0. 
 C                     2.58607   1.4879    0. 
 H                     3.0897    1.13014   0.87365 
 H                     3.0897    1.13014  -0.87365 
 H                     2.58838   2.5579    0. 
 

 GradGradGradGradGradGradGradGradGradGradGradGradGradGradGradGradGradGrad
 Berny optimization.
 Initialization pass.
                           ----------------------------
                           !    Initial Parameters    !
                           ! (Angstroms and Degrees)  !
 --------------------------                            --------------------------
 ! Name  Definition              Value          Derivative Info.                !
 --------------------------------------------------------------------------------
 ! R1    R(1,2)                  1.3611         estimate D2E/DX2                !
 ! R2    R(1,6)                  1.3611         estimate D2E/DX2                !
 ! R3    R(1,8)                  1.76           estimate D2E/DX2                !
 ! R4    R(2,3)                  1.3495         estimate D2E/DX2                !
 ! R5    R(3,4)                  1.4084         estimate D2E/DX2                !
 ! R6    R(3,9)                  1.76           estimate D2E/DX2                !
 ! R7    R(4,5)                  1.4083         estimate D2E/DX2                !
 ! R8    R(4,10)                 1.54           estimate D2E/DX2                !
 ! R9    R(5,6)                  1.3495         estimate D2E/DX2                !
 ! R10   R(5,7)                  1.1046         estimate D2E/DX2                !
 ! R11   R(10,11)                1.07           estimate D2E/DX2                !
 ! R12   R(10,12)                1.07           estimate D2E/DX2                !
 ! R13   R(10,13)                1.07           estimate D2E/DX2                !
 ! A1    A(2,1,6)              126.8598         estimate D2E/DX2                !
 ! A2    A(2,1,8)              116.5695         estimate D2E/DX2                !
 ! A3    A(6,1,8)              116.5707         estimate D2E/DX2                !
 ! A4    A(1,2,3)              115.8253         estimate D2E/DX2                !
 ! A5    A(2,3,4)              122.3225         estimate D2E/DX2                !
 ! A6    A(2,3,9)              116.3034         estimate D2E/DX2                !
 ! A7    A(4,3,9)              121.3741         estimate D2E/DX2                !
 ! A8    A(3,4,5)              116.8447         estimate D2E/DX2                !
 ! A9    A(3,4,10)             121.576          estimate D2E/DX2                !
 ! A10   A(5,4,10)             121.5794         estimate D2E/DX2                !
 ! A11   A(4,5,6)              122.3238         estimate D2E/DX2                !
 ! A12   A(4,5,7)              121.374          estimate D2E/DX2                !
 ! A13   A(6,5,7)              116.3023         estimate D2E/DX2                !
 ! A14   A(1,6,5)              115.824          estimate D2E/DX2                !
 ! A15   A(4,10,11)            109.4713         estimate D2E/DX2                !
 ! A16   A(4,10,12)            109.4713         estimate D2E/DX2                !
 ! A17   A(4,10,13)            109.4712         estimate D2E/DX2                !
 ! A18   A(11,10,12)           109.4706         estimate D2E/DX2                !
 ! A19   A(11,10,13)           109.4714         estimate D2E/DX2                !
 ! A20   A(12,10,13)           109.4714         estimate D2E/DX2                !
 ! D1    D(6,1,2,3)              0.0            estimate D2E/DX2                !
 ! D2    D(8,1,2,3)            180.0            estimate D2E/DX2                !
 ! D3    D(2,1,6,5)              0.0            estimate D2E/DX2                !
 ! D4    D(8,1,6,5)            180.0            estimate D2E/DX2                !
 ! D5    D(1,2,3,4)              0.0            estimate D2E/DX2                !
 ! D6    D(1,2,3,9)            180.0            estimate D2E/DX2                !
 ! D7    D(2,3,4,5)              0.0            estimate D2E/DX2                !
 ! D8    D(2,3,4,10)           180.0            estimate D2E/DX2                !
 ! D9    D(9,3,4,5)            180.0            estimate D2E/DX2                !
 ! D10   D(9,3,4,10)             0.0            estimate D2E/DX2                !
 ! D11   D(3,4,5,6)              0.0            estimate D2E/DX2                !
 ! D12   D(3,4,5,7)            180.0            estimate D2E/DX2                !
 ! D13   D(10,4,5,6)           180.0            estimate D2E/DX2                !
 ! D14   D(10,4,5,7)             0.0            estimate D2E/DX2                !
 ! D15   D(3,4,10,11)          -59.9997         estimate D2E/DX2                !
 ! D16   D(3,4,10,12)           59.9997         estimate D2E/DX2                !
 ! D17   D(3,4,10,13)          180.0            estimate D2E/DX2                !
 ! D18   D(5,4,10,11)          120.0003         estimate D2E/DX2                !
 ! D19   D(5,4,10,12)         -120.0003         estimate D2E/DX2                !
 ! D20   D(5,4,10,13)            0.0            estimate D2E/DX2                !
 ! D21   D(4,5,6,1)              0.0            estimate D2E/DX2                !
 ! D22   D(7,5,6,1)            180.0            estimate D2E/DX2                !
 --------------------------------------------------------------------------------
 Trust Radius=3.00D-01 FncErr=1.00D-07 GrdErr=1.00D-06
 Number of steps in this run=     65 maximum allowed number of steps=    100.
 GradGradGradGradGradGradGradGradGradGradGradGradGradGradGradGradGradGrad

                          Input orientation:                          
 ---------------------------------------------------------------------
 Center     Atomic      Atomic             Coordinates (Angstroms)
 Number     Number       Type             X           Y           Z
 ---------------------------------------------------------------------
      1          6           0       -1.410404    0.084567    0.000000
      2          7           0       -0.432644   -0.862319    0.000000
      3          6           0        0.834720   -0.398686    0.000000
      4          6           0        1.133033    0.977715    0.000000
      5          6           0        0.039686    1.865413    0.000000
      6          7           0       -1.239308    1.434916    0.000000
      7          1           0        0.187683    2.960096    0.000000
      8         17           0       -3.070990   -0.498574    0.000000
      9         17           0        2.109202   -1.612480    0.000000
     10          6           0        2.586067    1.487903    0.000000
     11          1           0        3.089698    1.130143    0.873646
     12          1           0        3.089698    1.130143   -0.873646
     13          1           0        2.588383    2.557901    0.000000
 ---------------------------------------------------------------------
                    Distance matrix (angstroms):
                    1          2          3          4          5
     1  C    0.000000
     2  N    1.361105   0.000000
     3  C    2.296544   1.349507   0.000000
     4  C    2.695697   2.416003   1.408357   0.000000
     5  C    2.296557   2.768324   2.399631   1.408338   0.000000
     6  N    1.361145   2.434747   2.768337   2.415995   1.349501
     7  H    3.289764   3.872423   3.420537   2.196252   1.104642
     8  Cl   1.760000   2.663302   3.906987   4.455697   3.907012
     9  Cl   3.907377   2.650231   1.760000   2.768035   4.047053
    10  C    4.235697   3.825724   2.574186   1.540000   2.574212
    11  H    4.701851   4.140056   2.861032   2.148263   3.256756
    12  H    4.701851   4.140056   2.861032   2.148263   3.256756
    13  H    4.701881   4.563388   3.437549   2.148263   2.641098
                    6          7          8          9         10
     6  N    0.000000
     7  H    2.088654   0.000000
     8  Cl   2.663352   4.751983   0.000000
     9  Cl   4.527598   4.959908   5.298602   0.000000
    10  C    3.825741   2.814178   5.995697   3.136842   0.000000
    11  H    4.426786   3.540294   6.431956   3.040824   1.069998
    12  H    4.426786   3.540294   6.431956   3.040824   1.069998
    13  H    3.989024   2.434158   6.431994   4.197820   1.070000
                   11         12         13
    11  H    0.000000
    12  H    1.747293   0.000000
    13  H    1.747303   1.747303   0.000000
 Stoichiometry    C5H4Cl2N2
 Framework group  CS[SG(C5H2Cl2N2),X(H2)]
 Deg. of freedom    22
 Full point group                 CS      NOp   2
 Largest Abelian subgroup         CS      NOp   2
 Largest concise Abelian subgroup CS      NOp   2
                         Standard orientation:                         
 ---------------------------------------------------------------------
 Center     Atomic      Atomic             Coordinates (Angstroms)
 Number     Number       Type             X           Y           Z
 ---------------------------------------------------------------------
      1          6           0        0.531562   -1.309134    0.000000
      2          7           0        0.964585   -0.018747    0.000000
      3          6           0        0.000000    0.925045    0.000000
      4          6           0       -1.370574    0.601012    0.000000
      5          6           0       -1.700371   -0.768166    0.000000
      6          7           0       -0.760674   -1.736733    0.000000
      7          1           0       -2.751950   -1.106419    0.000000
      8         17           0        1.773462   -2.556246    0.000000
      9         17           0        0.545984    2.598216    0.000000
     10          6           0       -2.457191    1.692279    0.000000
     11          1           0       -2.351424    2.300926    0.873646
     12          1           0       -2.351424    2.300926   -0.873646
     13          1           0       -3.423708    1.233210    0.000000
 ---------------------------------------------------------------------
 Rotational constants (GHZ):      2.1149104      0.7599641      0.5609794
 Standard basis: 6-21G (6D, 7F)
 There are    75 symmetry adapted cartesian basis functions of A'  symmetry.
 There are    22 symmetry adapted cartesian basis functions of A"  symmetry.
 There are    75 symmetry adapted basis functions of A'  symmetry.
 There are    22 symmetry adapted basis functions of A"  symmetry.
    97 basis functions,   222 primitive gaussians,    97 cartesian basis functions
    41 alpha electrons       41 beta electrons
       nuclear repulsion energy       554.7204222427 Hartrees.
 NAtoms=   13 NActive=   13 NUniq=   12 SFac= 1.17D+00 NAtFMM=   60 NAOKFM=F Big=F
 Integral buffers will be    262144 words long.
 Raffenetti 2 integral format.
 Two-electron integral symmetry is turned on.
 One-electron integrals computed using PRISM.
 NBasis=    97 RedAO= T EigKep=  6.59D-03  NBF=    75    22
 NBsUse=    97 1.00D-06 EigRej= -1.00D+00 NBFU=    75    22
 ExpMin= 1.67D-01 ExpMax= 2.52D+04 ExpMxC= 3.78D+03 IAcc=1 IRadAn=         1 AccDes= 0.00D+00
 Harris functional with IExCor=  402 and IRadAn=       1 diagonalized for initial guess.
 HarFok:  IExCor=  402 AccDes= 0.00D+00 IRadAn=         1 IDoV= 1 UseB2=F ITyADJ=14
 ICtDFT=  3500011 ScaDFX=  1.000000  1.000000  1.000000  1.000000
 FoFCou: FMM=F IPFlag=           0 FMFlag=      100000 FMFlg1=           0
         NFxFlg=           0 DoJE=T BraDBF=F KetDBF=T FulRan=T
         wScrn=  0.000000 ICntrl=     500 IOpCl=  0 I1Cent=   200000004 NGrid=           0
         NMat0=    1 NMatS0=      1 NMatT0=    0 NMatD0=    1 NMtDS0=    0 NMtDT0=    0
 Petite list used in FoFCou.
 Initial guess orbital symmetries:
       Occupied  (A') (A') (A') (A') (A') (A') (A') (A') (A') (A')
                 (A') (A') (A') (A') (A") (A") (A') (A') (A') (A')
                 (A') (A') (A') (A') (A') (A') (A') (A") (A') (A')
                 (A") (A') (A') (A") (A') (A") (A') (A') (A') (A")
                 (A")
       Virtual   (A") (A") (A') (A") (A') (A') (A') (A') (A") (A')
                 (A') (A') (A') (A') (A') (A') (A') (A') (A') (A')
                 (A') (A") (A") (A') (A') (A") (A') (A") (A') (A')
                 (A") (A') (A') (A") (A") (A') (A') (A") (A') (A')
                 (A") (A') (A') (A") (A') (A') (A') (A') (A') (A')
                 (A') (A') (A') (A') (A') (A')
 The electronic state of the initial guess is 1-A'.
 Keep R1 ints in memory in symmetry-blocked form, NReq=17529400.
 Requested convergence on RMS density matrix=1.00D-08 within 128 cycles.
 Requested convergence on MAX density matrix=1.00D-06.
 Requested convergence on             energy=1.00D-06.
 No special actions if energy rises.
 Integral accuracy reduced to 1.0D-05 until final iterations.
 Initial convergence to 1.0D-05 achieved.  Increase integral accuracy.
 SCF Done:  E(RB3LYP) =  -1222.43171456     A.U. after   16 cycles
            NFock= 16  Conv=0.44D-08     -V/T= 2.0027

 **********************************************************************

            Population analysis using the SCF density.

 **********************************************************************

 Orbital symmetries:
       Occupied  (A') (A') (A') (A') (A') (A') (A') (A') (A') (A')
                 (A') (A') (A") (A') (A') (A") (A') (A') (A') (A')
                 (A') (A') (A') (A') (A') (A') (A') (A") (A') (A')
                 (A") (A') (A') (A") (A") (A') (A') (A') (A") (A")
                 (A')
       Virtual   (A") (A") (A') (A') (A") (A') (A') (A') (A") (A')
                 (A') (A') (A') (A') (A') (A') (A') (A') (A') (A')
                 (A") (A') (A") (A') (A") (A') (A") (A') (A') (A')
                 (A") (A') (A") (A') (A") (A') (A') (A") (A') (A')
                 (A") (A') (A') (A") (A') (A') (A') (A') (A') (A')
                 (A') (A') (A') (A') (A') (A')
 The electronic state is 1-A'.
 Alpha  occ. eigenvalues -- -101.55343-101.53943 -14.40652 -14.39875 -10.35915
 Alpha  occ. eigenvalues --  -10.34321 -10.29108 -10.27091 -10.22301  -9.48905
 Alpha  occ. eigenvalues --   -9.47550  -7.25283  -7.24152  -7.24062  -7.23952
 Alpha  occ. eigenvalues --   -7.22788  -7.22676  -1.04740  -0.95368  -0.90038
 Alpha  occ. eigenvalues --   -0.86263  -0.82442  -0.73260  -0.68612  -0.65459
 Alpha  occ. eigenvalues --   -0.57239  -0.53189  -0.48221  -0.45855  -0.45722
 Alpha  occ. eigenvalues --   -0.44422  -0.44177  -0.42834  -0.38910  -0.35118
 Alpha  occ. eigenvalues --   -0.33995  -0.32777  -0.32651  -0.31790  -0.28123
 Alpha  occ. eigenvalues --   -0.27374
 Alpha virt. eigenvalues --   -0.06546  -0.05426   0.00502   0.03965   0.09316
 Alpha virt. eigenvalues --    0.11335   0.13835   0.15635   0.18410   0.20301
 Alpha virt. eigenvalues --    0.22891   0.25732   0.31939   0.34334   0.39597
 Alpha virt. eigenvalues --    0.48095   0.48960   0.50655   0.53295   0.55372
 Alpha virt. eigenvalues --    0.56512   0.57762   0.57780   0.58915   0.63711
 Alpha virt. eigenvalues --    0.66549   0.70378   0.70548   0.73079   0.74522
 Alpha virt. eigenvalues --    0.76026   0.79015   0.79727   0.82656   0.88005
 Alpha virt. eigenvalues --    0.92074   1.00581   1.04937   1.05748   1.07100
 Alpha virt. eigenvalues --    1.12073   1.15247   1.16766   1.24830   1.29797
 Alpha virt. eigenvalues --    1.33254   1.36641   1.41302   1.47212   1.51517
 Alpha virt. eigenvalues --    1.61303   1.76270   1.90634   1.96374   2.59169
 Alpha virt. eigenvalues --    2.91224
          Condensed to atoms (all electrons):
               1          2          3          4          5          6
     1  C    5.194897   0.333276  -0.112470  -0.015189  -0.117232   0.333079
     2  N    0.333276   7.011621   0.381757  -0.063426  -0.022833  -0.064673
     3  C   -0.112470   0.381757   5.445086   0.230000  -0.088595  -0.023745
     4  C   -0.015189  -0.063426   0.230000   5.646049   0.302580  -0.060533
     5  C   -0.117232  -0.022833  -0.088595   0.302580   5.065424   0.419327
     6  N    0.333079  -0.064673  -0.023745  -0.060533   0.419327   6.958603
     7  H    0.003751  -0.000208   0.002883  -0.064003   0.391067  -0.038012
     8  Cl   0.241899  -0.070021   0.003589  -0.000885   0.003827  -0.069836
     9  Cl   0.002683  -0.064334   0.251399  -0.095555   0.001519  -0.000192
    10  C    0.000698   0.002182  -0.044560   0.256234  -0.039025   0.002300
    11  H    0.000005  -0.000005  -0.003880  -0.041149   0.001066  -0.000032
    12  H    0.000005  -0.000005  -0.003880  -0.041149   0.001066  -0.000032
    13  H   -0.000006  -0.000026   0.003890  -0.039445  -0.002894   0.000006
               7          8          9         10         11         12
     1  C    0.003751   0.241899   0.002683   0.000698   0.000005   0.000005
     2  N   -0.000208  -0.070021  -0.064334   0.002182  -0.000005  -0.000005
     3  C    0.002883   0.003589   0.251399  -0.044560  -0.003880  -0.003880
     4  C   -0.064003  -0.000885  -0.095555   0.256234  -0.041149  -0.041149
     5  C    0.391067   0.003827   0.001519  -0.039025   0.001066   0.001066
     6  N   -0.038012  -0.069836  -0.000192   0.002300  -0.000032  -0.000032
     7  H    0.466583  -0.000019  -0.000044  -0.000614   0.000001   0.000001
     8  Cl  -0.000019  16.682507  -0.000021   0.000003   0.000000   0.000000
     9  Cl  -0.000044  -0.000021  16.681082   0.002557   0.002372   0.002372
    10  C   -0.000614   0.000003   0.002557   5.330275   0.368626   0.368626
    11  H    0.000001   0.000000   0.002372   0.368626   0.485292  -0.025214
    12  H    0.000001   0.000000   0.002372   0.368626  -0.025214   0.485292
    13  H    0.003216   0.000000   0.000308   0.364426  -0.024017  -0.024017
              13
     1  C   -0.000006
     2  N   -0.000026
     3  C    0.003890
     4  C   -0.039445
     5  C   -0.002894
     6  N    0.000006
     7  H    0.003216
     8  Cl   0.000000
     9  Cl   0.000308
    10  C    0.364426
    11  H   -0.024017
    12  H   -0.024017
    13  H    0.505651
 Mulliken charges:
               1
     1  C    0.134604
     2  N   -0.443305
     3  C   -0.041474
     4  C   -0.013529
     5  C    0.084704
     6  N   -0.456259
     7  H    0.235397
     8  Cl   0.208956
     9  Cl   0.215854
    10  C   -0.611727
    11  H    0.236935
    12  H    0.236935
    13  H    0.212909
 Sum of Mulliken charges =   0.00000
 Mulliken charges with hydrogens summed into heavy atoms:
               1
     1  C    0.134604
     2  N   -0.443305
     3  C   -0.041474
     4  C   -0.013529
     5  C    0.320101
     6  N   -0.456259
     8  Cl   0.208956
     9  Cl   0.215854
    10  C    0.075051
 Electronic spatial extent (au):  <R**2>=           1810.4765
 Charge=              0.0000 electrons
 Dipole moment (field-independent basis, Debye):
    X=             -3.7639    Y=              1.7985    Z=              0.0000  Tot=              4.1715
 Quadrupole moment (field-independent basis, Debye-Ang):
   XX=            -60.9988   YY=            -69.8187   ZZ=            -65.4476
   XY=             -2.6030   XZ=              0.0000   YZ=              0.0000
 Traceless Quadrupole moment (field-independent basis, Debye-Ang):
   XX=              4.4229   YY=             -4.3970   ZZ=             -0.0259
   XY=             -2.6030   XZ=              0.0000   YZ=              0.0000
 Octapole moment (field-independent basis, Debye-Ang**2):
  XXX=            -16.1128  YYY=             18.1475  ZZZ=              0.0000  XYY=              2.1083
  XXY=              1.6035  XXZ=              0.0000  XZZ=              3.6651  YZZ=              1.0013
  YYZ=              0.0000  XYZ=              0.0000
 Hexadecapole moment (field-independent basis, Debye-Ang**3):
 XXXX=           -774.9543 YYYY=          -1414.9254 ZZZZ=            -70.7418 XXXY=            183.1191
 XXXZ=              0.0000 YYYX=            167.6497 YYYZ=              0.0000 ZZZX=              0.0000
 ZZZY=              0.0000 XXYY=           -353.7825 XXZZ=           -154.2199 YYZZ=           -245.8662
 XXYZ=              0.0000 YYXZ=              0.0000 ZZXY=             60.4126
 N-N= 5.547204222427D+02 E-N=-3.998758807421D+03  KE= 1.219142910177D+03
 Symmetry A'   KE= 1.117921861881D+03
 Symmetry A"   KE= 1.012210482963D+02
 Calling FoFJK, ICntrl=      2127 FMM=F ISym2X=1 I1Cent= 0 IOpClX= 0 NMat=1 NMatS=1 NMatT=0.
 ***** Axes restored to original set *****
 -------------------------------------------------------------------
 Center     Atomic                   Forces (Hartrees/Bohr)
 Number     Number              X              Y              Z
 -------------------------------------------------------------------
      1        6           0.034495126    0.013666358    0.000000000
      2        7          -0.004175167    0.015881995    0.000000000
      3        6          -0.035269133    0.024520402    0.000000000
      4        6           0.019138238    0.003640906    0.000000000
      5        6           0.005466340   -0.000784743    0.000000000
      6        7          -0.006982301   -0.019329553    0.000000000
      7        1          -0.000116378   -0.013778959    0.000000000
      8       17          -0.018167568   -0.006893683    0.000000000
      9       17           0.016855936   -0.014073729    0.000000000
     10        6          -0.031988630   -0.008183266    0.000000000
     11        1           0.009898480   -0.005497682    0.013049669
     12        1           0.009898480   -0.005497682   -0.013049669
     13        1           0.000946579    0.016329635    0.000000000
 -------------------------------------------------------------------
 Cartesian Forces:  Max     0.035269133 RMS     0.013707906

 GradGradGradGradGradGradGradGradGradGradGradGradGradGradGradGradGradGrad
 Berny optimization.
 FormGI is forming the generalized inverse of G from B-inverse, IUseBI=4.
 Internal  Forces:  Max     0.021909670 RMS     0.007961201
 Search for a local minimum.
 Step number   1 out of a maximum of   65
 All quantities printed in internal units (Hartrees-Bohrs-Radians)
 Mixed Optimization -- RFO/linear search
 Second derivative matrix not updated -- first step.
 ITU=  0
     Eigenvalues ---    0.00237   0.01240   0.02004   0.02081   0.02107
     Eigenvalues ---    0.02206   0.02236   0.02253   0.07243   0.07243
     Eigenvalues ---    0.16000   0.16000   0.16000   0.16000   0.23297
     Eigenvalues ---    0.25000   0.25000   0.25000   0.25000   0.25000
     Eigenvalues ---    0.28519   0.29539   0.29539   0.33174   0.37230
     Eigenvalues ---    0.37230   0.37230   0.42056   0.43484   0.50635
     Eigenvalues ---    0.51072   0.53462   0.55127
 RFO step:  Lambda=-9.55111585D-03 EMin= 2.36824203D-03
 Linear search not attempted -- first point.
 Iteration  1 RMS(Cart)=  0.02144096 RMS(Int)=  0.00016580
 Iteration  2 RMS(Cart)=  0.00018757 RMS(Int)=  0.00002559
 Iteration  3 RMS(Cart)=  0.00000003 RMS(Int)=  0.00002559
 ClnCor:  largest displacement from symmetrization is 3.06D-10 for atom    12.
 Variable       Old X    -DE/DX   Delta X   Delta X   Delta X     New X
                                 (Linear)    (Quad)   (Total)
    R1        2.57212  -0.01938   0.00000  -0.03744  -0.03746   2.53465
    R2        2.57219  -0.02103   0.00000  -0.04009  -0.04013   2.53206
    R3        3.32592   0.01943   0.00000   0.06370   0.06370   3.38962
    R4        2.55020  -0.00928   0.00000  -0.01699  -0.01697   2.53322
    R5        2.66141  -0.01006   0.00000  -0.02128  -0.02124   2.64017
    R6        3.32592   0.02191   0.00000   0.07185   0.07185   3.39777
    R7        2.66137  -0.00925   0.00000  -0.01889  -0.01887   2.64250
    R8        2.91018  -0.01155   0.00000  -0.03920  -0.03920   2.87098
    R9        2.55019   0.00335   0.00000   0.00646   0.00644   2.55662
   R10        2.08747  -0.01367   0.00000  -0.04005  -0.04005   2.04742
   R11        2.02200   0.01716   0.00000   0.04493   0.04493   2.06693
   R12        2.02200   0.01716   0.00000   0.04493   0.04493   2.06693
   R13        2.02201   0.01633   0.00000   0.04275   0.04275   2.06476
    A1        2.21412   0.00000   0.00000  -0.00438  -0.00442   2.20970
    A2        2.03452  -0.00079   0.00000  -0.00084  -0.00082   2.03370
    A3        2.03454   0.00079   0.00000   0.00522   0.00524   2.03978
    A4        2.02153   0.00277   0.00000   0.00480   0.00481   2.02634
    A5        2.13493   0.00585   0.00000   0.02307   0.02313   2.15806
    A6        2.02988  -0.00055   0.00000  -0.00240  -0.00243   2.02745
    A7        2.11838  -0.00529   0.00000  -0.02067  -0.02070   2.09768
    A8        2.03932  -0.01185   0.00000  -0.04117  -0.04111   1.99821
    A9        2.12190   0.00792   0.00000   0.02828   0.02825   2.15015
   A10        2.12196   0.00393   0.00000   0.01289   0.01286   2.13482
   A11        2.13495   0.00479   0.00000   0.02490   0.02490   2.15985
   A12        2.11838  -0.00421   0.00000  -0.02314  -0.02314   2.09523
   A13        2.02986  -0.00058   0.00000  -0.00176  -0.00176   2.02810
   A14        2.02151  -0.00155   0.00000  -0.00722  -0.00731   2.01420
   A15        1.91064   0.00205   0.00000   0.01156   0.01152   1.92216
   A16        1.91064   0.00205   0.00000   0.01156   0.01152   1.92216
   A17        1.91063   0.00069   0.00000   0.00509   0.00504   1.91567
   A18        1.91062  -0.00245   0.00000  -0.01652  -0.01656   1.89406
   A19        1.91064  -0.00116   0.00000  -0.00585  -0.00589   1.90475
   A20        1.91064  -0.00116   0.00000  -0.00585  -0.00589   1.90475
    D1        0.00000   0.00000   0.00000   0.00000   0.00000   0.00000
    D2        3.14159   0.00000   0.00000   0.00000   0.00000   3.14159
    D3        0.00000   0.00000   0.00000   0.00000   0.00000   0.00000
    D4        3.14159   0.00000   0.00000   0.00000   0.00000   3.14159
    D5        0.00000   0.00000   0.00000   0.00000   0.00000   0.00000
    D6        3.14159   0.00000   0.00000   0.00000   0.00000   3.14159
    D7        0.00000   0.00000   0.00000   0.00000   0.00000   0.00000
    D8        3.14159   0.00000   0.00000   0.00000   0.00000   3.14159
    D9        3.14159   0.00000   0.00000   0.00000   0.00000   3.14159
   D10        0.00000   0.00000   0.00000   0.00000   0.00000   0.00000
   D11        0.00000   0.00000   0.00000   0.00000   0.00000   0.00000
   D12        3.14159   0.00000   0.00000   0.00000   0.00000   3.14159
   D13        3.14159   0.00000   0.00000   0.00000   0.00000   3.14159
   D14        0.00000   0.00000   0.00000   0.00000   0.00000   0.00000
   D15       -1.04719   0.00025   0.00000   0.00304   0.00304  -1.04415
   D16        1.04719  -0.00025   0.00000  -0.00304  -0.00304   1.04415
   D17        3.14159   0.00000   0.00000   0.00000   0.00000   3.14159
   D18        2.09440   0.00025   0.00000   0.00304   0.00304   2.09744
   D19       -2.09440  -0.00025   0.00000  -0.00304  -0.00304  -2.09744
   D20        0.00000   0.00000   0.00000   0.00000   0.00000   0.00000
   D21        0.00000   0.00000   0.00000   0.00000   0.00000   0.00000
   D22        3.14159   0.00000   0.00000   0.00000   0.00000   3.14159
         Item               Value     Threshold  Converged?
 Maximum Force            0.021910     0.000450     NO 
 RMS     Force            0.007961     0.000300     NO 
 Maximum Displacement     0.080513     0.001800     NO 
 RMS     Displacement     0.021424     0.001200     NO 
 Predicted change in Energy=-4.908795D-03
 GradGradGradGradGradGradGradGradGradGradGradGradGradGradGradGradGradGrad

                          Input orientation:                          
 ---------------------------------------------------------------------
 Center     Atomic      Atomic             Coordinates (Angstroms)
 Number     Number       Type             X           Y           Z
 ---------------------------------------------------------------------
      1          6           0       -1.408978    0.094530    0.000000
      2          7           0       -0.442144   -0.835128    0.000000
      3          6           0        0.817360   -0.376156    0.000000
      4          6           0        1.146490    0.981641    0.000000
      5          6           0        0.046302    1.844761    0.000000
      6          7           0       -1.239403    1.423666    0.000000
      7          1           0        0.198342    2.917490    0.000000
      8         17           0       -3.098752   -0.507182    0.000000
      9         17           0        2.114799   -1.620956    0.000000
     10          6           0        2.577994    1.490500    0.000000
     11          1           0        3.105587    1.130224    0.887797
     12          1           0        3.105587    1.130224   -0.887797
     13          1           0        2.581639    2.583119    0.000000
 ---------------------------------------------------------------------
                    Distance matrix (angstroms):
                    1          2          3          4          5
     1  C    0.000000
     2  N    1.341281   0.000000
     3  C    2.275549   1.340524   0.000000
     4  C    2.705066   2.413381   1.397118   0.000000
     5  C    2.276213   2.724039   2.350958   1.398353   0.000000
     6  N    1.339910   2.395365   2.733063   2.426494   1.352908
     7  H    3.248473   3.806884   3.351311   2.155573   1.083450
     8  Cl   1.793709   2.676773   3.918303   4.498741   3.927213
     9  Cl   3.919171   2.674974   1.798021   2.776893   4.036072
    10  C    4.224296   3.811795   2.565977   1.519257   2.556358
    11  H    4.716157   4.151769   2.879817   2.155996   3.264655
    12  H    4.716157   4.151769   2.879817   2.155996   3.264655
    13  H    4.702988   4.563735   3.445285   2.150438   2.640664
                    6          7          8          9         10
     6  N    0.000000
     7  H    2.073311   0.000000
     8  Cl   2.680550   4.753862   0.000000
     9  Cl   4.529945   4.926490   5.331192   0.000000
    10  C    3.817982   2.774715   6.017988   3.145745   0.000000
    11  H    4.444461   3.526270   6.477893   3.055951   1.093771
    12  H    4.444461   3.526270   6.477893   3.055951   1.093771
    13  H    3.993081   2.406639   6.466591   4.229916   1.092625
                   11         12         13
    11  H    0.000000
    12  H    1.775593   0.000000
    13  H    1.781463   1.781463   0.000000
 Stoichiometry    C5H4Cl2N2
 Framework group  CS[SG(C5H2Cl2N2),X(H2)]
 Deg. of freedom    22
 Full point group                 CS      NOp   2
 Largest Abelian subgroup         CS      NOp   2
 Largest concise Abelian subgroup CS      NOp   2
                         Standard orientation:                         
 ---------------------------------------------------------------------
 Center     Atomic      Atomic             Coordinates (Angstroms)
 Number     Number       Type             X           Y           Z
 ---------------------------------------------------------------------
      1          6           0        0.495424   -1.316851    0.000000
      2          7           0        0.940163   -0.051449    0.000000
      3          6           0        0.000000    0.904113    0.000000
      4          6           0       -1.371973    0.640241    0.000000
      5          6           0       -1.700843   -0.718889    0.000000
      6          7           0       -0.784273   -1.714006    0.000000
      7          1           0       -2.739968   -1.025618    0.000000
      8         17           0        1.743977   -2.604682    0.000000
      9         17           0        0.594312    2.601073    0.000000
     10          6           0       -2.428888    1.731604    0.000000
     11          1           0       -2.319976    2.361121    0.887797
     12          1           0       -2.319976    2.361121   -0.887797
     13          1           0       -3.424542    1.281603    0.000000
 ---------------------------------------------------------------------
 Rotational constants (GHZ):      2.1216571      0.7526873      0.5575331
 Standard basis: 6-21G (6D, 7F)
 There are    75 symmetry adapted cartesian basis functions of A'  symmetry.
 There are    22 symmetry adapted cartesian basis functions of A"  symmetry.
 There are    75 symmetry adapted basis functions of A'  symmetry.
 There are    22 symmetry adapted basis functions of A"  symmetry.
    97 basis functions,   222 primitive gaussians,    97 cartesian basis functions
    41 alpha electrons       41 beta electrons
       nuclear repulsion energy       554.0248145715 Hartrees.
 NAtoms=   13 NActive=   13 NUniq=   12 SFac= 1.17D+00 NAtFMM=   60 NAOKFM=F Big=F
 Integral buffers will be    262144 words long.
 Raffenetti 2 integral format.
 Two-electron integral symmetry is turned on.
 One-electron integrals computed using PRISM.
 NBasis=    97 RedAO= T EigKep=  6.27D-03  NBF=    75    22
 NBsUse=    97 1.00D-06 EigRej= -1.00D+00 NBFU=    75    22
 Initial guess from the checkpoint file:  "D:\mindmap\gaussian\calculate\opt_freq\QM1\NMR.chk"
 B after Tr=     0.000000    0.000000    0.000000
         Rot=    0.999961    0.000000    0.000000    0.008887 Ang=   1.02 deg.
 Initial guess orbital symmetries:
       Occupied  (A') (A') (A') (A') (A') (A') (A') (A') (A') (A')
                 (A') (A') (A") (A') (A') (A") (A') (A') (A') (A')
                 (A') (A') (A') (A') (A') (A') (A') (A") (A') (A')
                 (A") (A') (A') (A") (A") (A') (A') (A') (A") (A")
                 (A')
       Virtual   (A') (A') (A') (A') (A') (A') (A') (A') (A') (A')
                 (A') (A') (A') (A') (A') (A') (A') (A') (A') (A')
                 (A') (A') (A') (A') (A') (A') (A') (A') (A') (A')
                 (A') (A') (A') (A') (A') (A') (A') (A') (A') (A')
                 (A') (A') (A") (A") (A") (A") (A") (A") (A") (A")
                 (A") (A") (A") (A") (A") (A")
 ExpMin= 1.67D-01 ExpMax= 2.52D+04 ExpMxC= 3.78D+03 IAcc=1 IRadAn=         1 AccDes= 0.00D+00
 Harris functional with IExCor=  402 and IRadAn=       1 diagonalized for initial guess.
 HarFok:  IExCor=  402 AccDes= 0.00D+00 IRadAn=         1 IDoV= 1 UseB2=F ITyADJ=14
 ICtDFT=  3500011 ScaDFX=  1.000000  1.000000  1.000000  1.000000
 FoFCou: FMM=F IPFlag=           0 FMFlag=      100000 FMFlg1=           0
         NFxFlg=           0 DoJE=T BraDBF=F KetDBF=T FulRan=T
         wScrn=  0.000000 ICntrl=     500 IOpCl=  0 I1Cent=   200000004 NGrid=           0
         NMat0=    1 NMatS0=      1 NMatT0=    0 NMatD0=    1 NMtDS0=    0 NMtDT0=    0
 Petite list used in FoFCou.
 Keep R1 ints in memory in symmetry-blocked form, NReq=17529400.
 Requested convergence on RMS density matrix=1.00D-08 within 128 cycles.
 Requested convergence on MAX density matrix=1.00D-06.
 Requested convergence on             energy=1.00D-06.
 No special actions if energy rises.
 Integral accuracy reduced to 1.0D-05 until final iterations.
 Initial convergence to 1.0D-05 achieved.  Increase integral accuracy.
 SCF Done:  E(RB3LYP) =  -1222.43741732     A.U. after   13 cycles
            NFock= 13  Conv=0.66D-08     -V/T= 2.0027
 Calling FoFJK, ICntrl=      2127 FMM=F ISym2X=1 I1Cent= 0 IOpClX= 0 NMat=1 NMatS=1 NMatT=0.
 ***** Axes restored to original set *****
 -------------------------------------------------------------------
 Center     Atomic                   Forces (Hartrees/Bohr)
 Number     Number              X              Y              Z
 -------------------------------------------------------------------
      1        6           0.010972009    0.005301967    0.000000000
      2        7           0.004148457    0.004434169    0.000000000
      3        6          -0.016700216    0.001783563    0.000000000
      4        6           0.009725059    0.000297596    0.000000000
      5        6          -0.000206522    0.003141974    0.000000000
      6        7          -0.002719000   -0.006323047    0.000000000
      7        1          -0.000106604    0.000541433    0.000000000
      8       17          -0.006845042   -0.002578000    0.000000000
      9       17           0.006839184   -0.005710671    0.000000000
     10        6          -0.008981530   -0.001464954    0.000000000
     11        1           0.001405574    0.000030774    0.000023530
     12        1           0.001405574    0.000030774   -0.000023530
     13        1           0.001063057    0.000514422    0.000000000
 -------------------------------------------------------------------
 Cartesian Forces:  Max     0.016700216 RMS     0.004643037

 GradGradGradGradGradGradGradGradGradGradGradGradGradGradGradGradGradGrad
 Berny optimization.
 Using GEDIIS/GDIIS optimizer.
 FormGI is forming the generalized inverse of G from B-inverse, IUseBI=4.
 Internal  Forces:  Max     0.008884630 RMS     0.002306789
 Search for a local minimum.
 Step number   2 out of a maximum of   65
 All quantities printed in internal units (Hartrees-Bohrs-Radians)
 Mixed Optimization -- RFO/linear search
 Update second derivatives using D2CorX and points    1    2
 DE= -5.70D-03 DEPred=-4.91D-03 R= 1.16D+00
 TightC=F SS=  1.41D+00  RLast= 1.67D-01 DXNew= 5.0454D-01 5.0157D-01
 Trust test= 1.16D+00 RLast= 1.67D-01 DXMaxT set to 5.02D-01
 ITU=  1  0
 Use linear search instead of GDIIS.
     Eigenvalues ---    0.00237   0.01215   0.02005   0.02082   0.02108
     Eigenvalues ---    0.02206   0.02237   0.02254   0.07120   0.07141
     Eigenvalues ---    0.15557   0.16000   0.16000   0.16040   0.21851
     Eigenvalues ---    0.23770   0.25000   0.25000   0.25000   0.25131
     Eigenvalues ---    0.25653   0.28705   0.29542   0.33626   0.37229
     Eigenvalues ---    0.37230   0.38365   0.43347   0.43830   0.48983
     Eigenvalues ---    0.51526   0.53961   0.55496
 RFO step:  Lambda=-7.48893745D-04 EMin= 2.36824203D-03
 Quartic linear search produced a step of  0.25638.
 Iteration  1 RMS(Cart)=  0.00694494 RMS(Int)=  0.00003823
 Iteration  2 RMS(Cart)=  0.00003907 RMS(Int)=  0.00002257
 Iteration  3 RMS(Cart)=  0.00000000 RMS(Int)=  0.00002257
 ClnCor:  largest displacement from symmetrization is 7.49D-11 for atom    12.
 Variable       Old X    -DE/DX   Delta X   Delta X   Delta X     New X
                                 (Linear)    (Quad)   (Total)
    R1        2.53465  -0.00331  -0.00960  -0.00221  -0.01182   2.52283
    R2        2.53206  -0.00476  -0.01029  -0.00458  -0.01488   2.51718
    R3        3.38962   0.00731   0.01633   0.01952   0.03585   3.42547
    R4        2.53322  -0.00739  -0.00435  -0.01439  -0.01874   2.51449
    R5        2.64017   0.00202  -0.00545   0.00999   0.00456   2.64473
    R6        3.39777   0.00888   0.01842   0.02472   0.04314   3.44091
    R7        2.64250   0.00256  -0.00484   0.01195   0.00712   2.64962
    R8        2.87098  -0.00511  -0.01005  -0.01537  -0.02542   2.84556
    R9        2.55662   0.00184   0.00165   0.00369   0.00534   2.56196
   R10        2.04742   0.00053  -0.01027   0.00921  -0.00106   2.04636
   R11        2.06693   0.00069   0.01152  -0.00576   0.00575   2.07268
   R12        2.06693   0.00069   0.01152  -0.00576   0.00575   2.07268
   R13        2.06476   0.00051   0.01096  -0.00599   0.00497   2.06973
    A1        2.20970   0.00149  -0.00113   0.00561   0.00446   2.21416
    A2        2.03370  -0.00093  -0.00021  -0.00320  -0.00340   2.03030
    A3        2.03978  -0.00055   0.00134  -0.00241  -0.00106   2.03873
    A4        2.02634   0.00094   0.00123  -0.00124  -0.00001   2.02634
    A5        2.15806   0.00124   0.00593   0.00173   0.00768   2.16574
    A6        2.02745   0.00040  -0.00062   0.00259   0.00196   2.02940
    A7        2.09768  -0.00164  -0.00531  -0.00432  -0.00964   2.08804
    A8        1.99821  -0.00186  -0.01054   0.00164  -0.00887   1.98934
    A9        2.15015   0.00199   0.00724   0.00308   0.01031   2.16046
   A10        2.13482  -0.00013   0.00330  -0.00472  -0.00144   2.13338
   A11        2.15985  -0.00199   0.00638  -0.01134  -0.00496   2.15490
   A12        2.09523   0.00117  -0.00593   0.00898   0.00305   2.09828
   A13        2.02810   0.00082  -0.00045   0.00236   0.00191   2.03001
   A14        2.01420   0.00018  -0.00187   0.00359   0.00169   2.01590
   A15        1.92216   0.00114   0.00295   0.00624   0.00914   1.93129
   A16        1.92216   0.00114   0.00295   0.00624   0.00914   1.93129
   A17        1.91567   0.00116   0.00129   0.00937   0.01058   1.92626
   A18        1.89406  -0.00147  -0.00425  -0.01077  -0.01505   1.87901
   A19        1.90475  -0.00102  -0.00151  -0.00575  -0.00734   1.89741
   A20        1.90475  -0.00102  -0.00151  -0.00575  -0.00734   1.89741
    D1        0.00000   0.00000   0.00000   0.00000   0.00000   0.00000
    D2        3.14159   0.00000   0.00000   0.00000   0.00000   3.14159
    D3        0.00000   0.00000   0.00000   0.00000   0.00000   0.00000
    D4        3.14159   0.00000   0.00000   0.00000   0.00000   3.14159
    D5        0.00000   0.00000   0.00000   0.00000   0.00000   0.00000
    D6        3.14159   0.00000   0.00000   0.00000   0.00000   3.14159
    D7        0.00000   0.00000   0.00000   0.00000   0.00000   0.00000
    D8        3.14159   0.00000   0.00000   0.00000   0.00000   3.14159
    D9        3.14159   0.00000   0.00000   0.00000   0.00000   3.14159
   D10        0.00000   0.00000   0.00000   0.00000   0.00000   0.00000
   D11        0.00000   0.00000   0.00000   0.00000   0.00000   0.00000
   D12        3.14159   0.00000   0.00000   0.00000   0.00000   3.14159
   D13        3.14159   0.00000   0.00000   0.00000   0.00000   3.14159
   D14        0.00000   0.00000   0.00000   0.00000   0.00000   0.00000
   D15       -1.04415   0.00019   0.00078   0.00274   0.00353  -1.04062
   D16        1.04415  -0.00019  -0.00078  -0.00274  -0.00353   1.04062
   D17        3.14159   0.00000   0.00000   0.00000   0.00000   3.14159
   D18        2.09744   0.00019   0.00078   0.00274   0.00353   2.10097
   D19       -2.09744  -0.00019  -0.00078  -0.00274  -0.00353  -2.10097
   D20        0.00000   0.00000   0.00000   0.00000   0.00000   0.00000
   D21        0.00000   0.00000   0.00000   0.00000   0.00000   0.00000
   D22        3.14159   0.00000   0.00000   0.00000   0.00000   3.14159
         Item               Value     Threshold  Converged?
 Maximum Force            0.008885     0.000450     NO 
 RMS     Force            0.002307     0.000300     NO 
 Maximum Displacement     0.024390     0.001800     NO 
 RMS     Displacement     0.006943     0.001200     NO 
 Predicted change in Energy=-6.086882D-04
 GradGradGradGradGradGradGradGradGradGradGradGradGradGradGradGradGradGrad

                          Input orientation:                          
 ---------------------------------------------------------------------
 Center     Atomic      Atomic             Coordinates (Angstroms)
 Number     Number       Type             X           Y           Z
 ---------------------------------------------------------------------
      1          6           0       -1.402773    0.098429    0.000000
      2          7           0       -0.441638   -0.828130    0.000000
      3          6           0        0.809131   -0.374150    0.000000
      4          6           0        1.151004    0.982983    0.000000
      5          6           0        0.047925    1.848523    0.000000
      6          7           0       -1.238393    1.420280    0.000000
      7          1           0        0.196710    2.921141    0.000000
      8         17           0       -3.109128   -0.513267    0.000000
      9         17           0        2.123900   -1.633863    0.000000
     10          6           0        2.569151    1.489255    0.000000
     11          1           0        3.108010    1.130555    0.885422
     12          1           0        3.108010    1.130555   -0.885422
     13          1           0        2.582914    2.584424    0.000000
 ---------------------------------------------------------------------
                    Distance matrix (angstroms):
                    1          2          3          4          5
     1  C    0.000000
     2  N    1.335025   0.000000
     3  C    2.261824   1.330609   0.000000
     4  C    2.702630   2.411770   1.399531   0.000000
     5  C    2.273182   2.721056   2.349407   1.402120   0.000000
     6  N    1.332033   2.385408   2.722561   2.429083   1.355731
     7  H    3.244388   3.803225   3.351717   2.160355   1.082888
     8  Cl   1.812683   2.686009   3.920727   4.515250   3.942720
     9  Cl   3.929154   2.689086   1.820849   2.791846   4.054218
    10  C    4.208393   3.799358   2.563191   1.505806   2.546694
    11  H    4.711307   4.149749   2.886686   2.153050   3.265512
    12  H    4.711307   4.149749   2.886686   2.153050   3.265512
    13  H    4.697433   4.559983   3.449561   2.148251   2.639644
                    6          7          8          9         10
     6  N    0.000000
     7  H    2.076561   0.000000
     8  Cl   2.690400   4.766940   0.000000
     9  Cl   4.542334   4.945919   5.351664   0.000000
    10  C    3.808168   2.771060   6.021041   3.154697   0.000000
    11  H    4.445125   3.530699   6.491450   3.065037   1.096817
    12  H    4.445125   3.530699   6.491450   3.065037   1.096817
    13  H    3.994699   2.409844   6.480358   4.243187   1.095256
                   11         12         13
    11  H    0.000000
    12  H    1.770844   0.000000
    13  H    1.781413   1.781413   0.000000
 Stoichiometry    C5H4Cl2N2
 Framework group  CS[SG(C5H2Cl2N2),X(H2)]
 Deg. of freedom    22
 Full point group                 CS      NOp   2
 Largest Abelian subgroup         CS      NOp   2
 Largest concise Abelian subgroup CS      NOp   2
                         Standard orientation:                         
 ---------------------------------------------------------------------
 Center     Atomic      Atomic             Coordinates (Angstroms)
 Number     Number       Type             X           Y           Z
 ---------------------------------------------------------------------
      1          6           0        0.484809   -1.314253    0.000000
      2          7           0        0.930746   -0.055909    0.000000
      3          6           0        0.000000    0.895002    0.000000
      4          6           0       -1.376986    0.644810    0.000000
      5          6           0       -1.708651   -0.717519    0.000000
      6          7           0       -0.786629   -1.711442    0.000000
      7          1           0       -2.746730   -1.025799    0.000000
      8         17           0        1.747616   -2.614691    0.000000
      9         17           0        0.602949    2.613124    0.000000
     10          6           0       -2.424584    1.726471    0.000000
     11          1           0       -2.320941    2.365449    0.885422
     12          1           0       -2.320941    2.365449   -0.885422
     13          1           0       -3.427337    1.285937    0.000000
 ---------------------------------------------------------------------
 Rotational constants (GHZ):      2.1088855      0.7495193      0.5549023
 Standard basis: 6-21G (6D, 7F)
 There are    75 symmetry adapted cartesian basis functions of A'  symmetry.
 There are    22 symmetry adapted cartesian basis functions of A"  symmetry.
 There are    75 symmetry adapted basis functions of A'  symmetry.
 There are    22 symmetry adapted basis functions of A"  symmetry.
    97 basis functions,   222 primitive gaussians,    97 cartesian basis functions
    41 alpha electrons       41 beta electrons
       nuclear repulsion energy       553.0297614131 Hartrees.
 NAtoms=   13 NActive=   13 NUniq=   12 SFac= 1.17D+00 NAtFMM=   60 NAOKFM=F Big=F
 Integral buffers will be    262144 words long.
 Raffenetti 2 integral format.
 Two-electron integral symmetry is turned on.
 One-electron integrals computed using PRISM.
 NBasis=    97 RedAO= T EigKep=  6.25D-03  NBF=    75    22
 NBsUse=    97 1.00D-06 EigRej= -1.00D+00 NBFU=    75    22
 Initial guess from the checkpoint file:  "D:\mindmap\gaussian\calculate\opt_freq\QM1\NMR.chk"
 B after Tr=     0.000000    0.000000    0.000000
         Rot=    1.000000    0.000000    0.000000    0.000658 Ang=   0.08 deg.
 Initial guess orbital symmetries:
       Occupied  (A') (A') (A') (A') (A') (A') (A') (A') (A') (A')
                 (A') (A') (A") (A') (A') (A") (A') (A') (A') (A')
                 (A') (A') (A') (A') (A') (A') (A') (A") (A') (A')
                 (A") (A') (A') (A") (A") (A') (A') (A') (A") (A")
                 (A')
       Virtual   (A') (A') (A') (A') (A') (A') (A') (A') (A') (A')
                 (A') (A') (A') (A') (A') (A') (A') (A') (A') (A')
                 (A') (A') (A') (A') (A') (A') (A') (A') (A') (A')
                 (A') (A') (A') (A') (A') (A') (A') (A') (A') (A')
                 (A') (A') (A") (A") (A") (A") (A") (A") (A") (A")
                 (A") (A") (A") (A") (A") (A")
 ExpMin= 1.67D-01 ExpMax= 2.52D+04 ExpMxC= 3.78D+03 IAcc=1 IRadAn=         1 AccDes= 0.00D+00
 Harris functional with IExCor=  402 and IRadAn=       1 diagonalized for initial guess.
 HarFok:  IExCor=  402 AccDes= 0.00D+00 IRadAn=         1 IDoV= 1 UseB2=F ITyADJ=14
 ICtDFT=  3500011 ScaDFX=  1.000000  1.000000  1.000000  1.000000
 FoFCou: FMM=F IPFlag=           0 FMFlag=      100000 FMFlg1=           0
         NFxFlg=           0 DoJE=T BraDBF=F KetDBF=T FulRan=T
         wScrn=  0.000000 ICntrl=     500 IOpCl=  0 I1Cent=   200000004 NGrid=           0
         NMat0=    1 NMatS0=      1 NMatT0=    0 NMatD0=    1 NMtDS0=    0 NMtDT0=    0
 Petite list used in FoFCou.
 Keep R1 ints in memory in symmetry-blocked form, NReq=17529400.
 Requested convergence on RMS density matrix=1.00D-08 within 128 cycles.
 Requested convergence on MAX density matrix=1.00D-06.
 Requested convergence on             energy=1.00D-06.
 No special actions if energy rises.
 Integral accuracy reduced to 1.0D-05 until final iterations.
 Initial convergence to 1.0D-05 achieved.  Increase integral accuracy.
 SCF Done:  E(RB3LYP) =  -1222.43811543     A.U. after   12 cycles
            NFock= 12  Conv=0.89D-08     -V/T= 2.0027
 Calling FoFJK, ICntrl=      2127 FMM=F ISym2X=1 I1Cent= 0 IOpClX= 0 NMat=1 NMatS=1 NMatT=0.
 ***** Axes restored to original set *****
 -------------------------------------------------------------------
 Center     Atomic                   Forces (Hartrees/Bohr)
 Number     Number              X              Y              Z
 -------------------------------------------------------------------
      1        6          -0.000799976    0.002278051    0.000000000
      2        7           0.003668570   -0.000137504    0.000000000
      3        6          -0.004248937   -0.001046092    0.000000000
      4        6           0.001185609    0.000175076    0.000000000
      5        6           0.000337734    0.000363921    0.000000000
      6        7          -0.000701519   -0.001043314    0.000000000
      7        1          -0.000025549    0.000705066    0.000000000
      8       17          -0.001236468   -0.000493314    0.000000000
      9       17           0.001711803   -0.000829980    0.000000000
     10        6           0.000436455    0.000418577    0.000000000
     11        1          -0.000236440    0.000348732   -0.000795310
     12        1          -0.000236440    0.000348732    0.000795310
     13        1           0.000145159   -0.001087949    0.000000000
 -------------------------------------------------------------------
 Cartesian Forces:  Max     0.004248937 RMS     0.001141273

 GradGradGradGradGradGradGradGradGradGradGradGradGradGradGradGradGradGrad
 Berny optimization.
 Using GEDIIS/GDIIS optimizer.
 FormGI is forming the generalized inverse of G from B-inverse, IUseBI=4.
 Internal  Forces:  Max     0.002182643 RMS     0.000648020
 Search for a local minimum.
 Step number   3 out of a maximum of   65
 All quantities printed in internal units (Hartrees-Bohrs-Radians)
 Mixed Optimization -- En-DIIS/RFO-DIIS
 Update second derivatives using D2CorX and points    1    2    3
 DE= -6.98D-04 DEPred=-6.09D-04 R= 1.15D+00
 TightC=F SS=  1.41D+00  RLast= 7.60D-02 DXNew= 8.4354D-01 2.2800D-01
 Trust test= 1.15D+00 RLast= 7.60D-02 DXMaxT set to 5.02D-01
 ITU=  1  1  0
 Use linear search instead of GDIIS.
     Eigenvalues ---    0.00237   0.01209   0.02006   0.02083   0.02109
     Eigenvalues ---    0.02206   0.02237   0.02254   0.07011   0.07018
     Eigenvalues ---    0.14625   0.16000   0.16002   0.16036   0.19163
     Eigenvalues ---    0.23773   0.25000   0.25000   0.25119   0.25194
     Eigenvalues ---    0.25946   0.28841   0.29544   0.33631   0.37229
     Eigenvalues ---    0.37230   0.39215   0.43326   0.43620   0.49285
     Eigenvalues ---    0.51521   0.55006   0.55922
 RFO step:  Lambda=-4.98639354D-05 EMin= 2.36824203D-03
 Quartic linear search produced a step of  0.16387.
 Iteration  1 RMS(Cart)=  0.00286654 RMS(Int)=  0.00000594
 Iteration  2 RMS(Cart)=  0.00000778 RMS(Int)=  0.00000364
 Iteration  3 RMS(Cart)=  0.00000000 RMS(Int)=  0.00000364
 ClnCor:  largest displacement from symmetrization is 8.00D-11 for atom    12.
 Variable       Old X    -DE/DX   Delta X   Delta X   Delta X     New X
                                 (Linear)    (Quad)   (Total)
    R1        2.52283   0.00218  -0.00194   0.00524   0.00331   2.52614
    R2        2.51718  -0.00054  -0.00244  -0.00024  -0.00268   2.51450
    R3        3.42547   0.00133   0.00588   0.00235   0.00822   3.43369
    R4        2.51449  -0.00210  -0.00307  -0.00261  -0.00568   2.50881
    R5        2.64473   0.00093   0.00075   0.00126   0.00201   2.64674
    R6        3.44091   0.00181   0.00707   0.00351   0.01058   3.45148
    R7        2.64962   0.00084   0.00117   0.00095   0.00212   2.65174
    R8        2.84556   0.00011  -0.00417   0.00257  -0.00159   2.84397
    R9        2.56196   0.00101   0.00087   0.00173   0.00260   2.56456
   R10        2.04636   0.00070  -0.00017   0.00161   0.00143   2.04779
   R11        2.07268  -0.00087   0.00094  -0.00231  -0.00137   2.07131
   R12        2.07268  -0.00087   0.00094  -0.00231  -0.00137   2.07131
   R13        2.06973  -0.00110   0.00081  -0.00297  -0.00216   2.06758
    A1        2.21416  -0.00038   0.00073  -0.00234  -0.00161   2.21255
    A2        2.03030   0.00015  -0.00056   0.00104   0.00048   2.03078
    A3        2.03873   0.00024  -0.00017   0.00130   0.00113   2.03986
    A4        2.02634   0.00042   0.00000   0.00145   0.00145   2.02779
    A5        2.16574   0.00023   0.00126   0.00025   0.00150   2.16725
    A6        2.02940   0.00087   0.00032   0.00389   0.00421   2.03361
    A7        2.08804  -0.00109  -0.00158  -0.00414  -0.00572   2.08232
    A8        1.98934  -0.00008  -0.00145  -0.00031  -0.00176   1.98758
    A9        2.16046  -0.00003   0.00169  -0.00070   0.00099   2.16146
   A10        2.13338   0.00011  -0.00024   0.00100   0.00076   2.13415
   A11        2.15490  -0.00027  -0.00081   0.00023  -0.00058   2.15431
   A12        2.09828   0.00025   0.00050   0.00038   0.00088   2.09916
   A13        2.03001   0.00002   0.00031  -0.00061  -0.00029   2.02971
   A14        2.01590   0.00009   0.00028   0.00072   0.00100   2.01689
   A15        1.93129   0.00021   0.00150   0.00064   0.00213   1.93342
   A16        1.93129   0.00021   0.00150   0.00064   0.00213   1.93342
   A17        1.92626   0.00016   0.00173   0.00021   0.00193   1.92818
   A18        1.87901  -0.00026  -0.00247  -0.00079  -0.00326   1.87575
   A19        1.89741  -0.00018  -0.00120  -0.00038  -0.00159   1.89582
   A20        1.89741  -0.00018  -0.00120  -0.00038  -0.00159   1.89582
    D1        0.00000   0.00000   0.00000   0.00000   0.00000   0.00000
    D2        3.14159   0.00000   0.00000   0.00000   0.00000   3.14159
    D3        0.00000   0.00000   0.00000   0.00000   0.00000   0.00000
    D4        3.14159   0.00000   0.00000   0.00000   0.00000   3.14159
    D5        0.00000   0.00000   0.00000   0.00000   0.00000   0.00000
    D6        3.14159   0.00000   0.00000   0.00000   0.00000   3.14159
    D7        0.00000   0.00000   0.00000   0.00000   0.00000   0.00000
    D8        3.14159   0.00000   0.00000   0.00000   0.00000   3.14159
    D9        3.14159   0.00000   0.00000   0.00000   0.00000   3.14159
   D10        0.00000   0.00000   0.00000   0.00000   0.00000   0.00000
   D11        0.00000   0.00000   0.00000   0.00000   0.00000   0.00000
   D12        3.14159   0.00000   0.00000   0.00000   0.00000   3.14159
   D13        3.14159   0.00000   0.00000   0.00000   0.00000   3.14159
   D14        0.00000   0.00000   0.00000   0.00000   0.00000   0.00000
   D15       -1.04062   0.00003   0.00058   0.00008   0.00066  -1.03996
   D16        1.04062  -0.00003  -0.00058  -0.00008  -0.00066   1.03996
   D17        3.14159   0.00000   0.00000   0.00000   0.00000   3.14159
   D18        2.10097   0.00003   0.00058   0.00008   0.00066   2.10163
   D19       -2.10097  -0.00003  -0.00058  -0.00008  -0.00066  -2.10163
   D20        0.00000   0.00000   0.00000   0.00000   0.00000   0.00000
   D21        0.00000   0.00000   0.00000   0.00000   0.00000   0.00000
   D22        3.14159   0.00000   0.00000   0.00000   0.00000   3.14159
         Item               Value     Threshold  Converged?
 Maximum Force            0.002183     0.000450     NO 
 RMS     Force            0.000648     0.000300     NO 
 Maximum Displacement     0.012990     0.001800     NO 
 RMS     Displacement     0.002869     0.001200     NO 
 Predicted change in Energy=-3.842648D-05
 GradGradGradGradGradGradGradGradGradGradGradGradGradGradGradGradGradGrad

                          Input orientation:                          
 ---------------------------------------------------------------------
 Center     Atomic      Atomic             Coordinates (Angstroms)
 Number     Number       Type             X           Y           Z
 ---------------------------------------------------------------------
      1          6           0       -1.404680    0.099558    0.000000
      2          7           0       -0.441128   -0.827014    0.000000
      3          6           0        0.806908   -0.374311    0.000000
      4          6           0        1.151358    0.983266    0.000000
      5          6           0        0.047354    1.849442    0.000000
      6          7           0       -1.239997    1.419945    0.000000
      7          1           0        0.195245    2.922949    0.000000
      8         17           0       -3.114657   -0.514923    0.000000
      9         17           0        2.130773   -1.632597    0.000000
     10          6           0        2.569072    1.488244    0.000000
     11          1           0        3.109432    1.129973    0.883781
     12          1           0        3.109432    1.129973   -0.883781
     13          1           0        2.585710    2.582232    0.000000
 ---------------------------------------------------------------------
                    Distance matrix (angstroms):
                    1          2          3          4          5
     1  C    0.000000
     2  N    1.336775   0.000000
     3  C    2.261785   1.327604   0.000000
     4  C    2.704491   2.411042   1.400594   0.000000
     5  C    2.273873   2.720667   2.349893   1.403240   0.000000
     6  N    1.330618   2.384746   2.721980   2.430898   1.357108
     7  H    3.245196   3.803576   3.353513   2.162526   1.083646
     8  Cl   1.817033   2.691684   3.924085   4.521444   3.948232
     9  Cl   3.936977   2.695114   1.826446   2.793206   4.057737
    10  C    4.209412   3.797594   2.564046   1.504963   2.547454
    11  H    4.713813   4.149378   2.888867   2.153287   3.267265
    12  H    4.713813   4.149378   2.888867   2.153287   3.267265
    13  H    4.699669   4.559024   3.450403   2.148035   2.642013
                    6          7          8          9         10
     6  N    0.000000
     7  H    2.078206   0.000000
     8  Cl   2.694080   4.772255   0.000000
     9  Cl   4.547538   4.949673   5.363184   0.000000
    10  C    3.809681   2.773703   6.026396   3.151469   0.000000
    11  H    4.447773   3.533881   6.498157   3.061149   1.096091
    12  H    4.447773   3.533881   6.498157   3.061149   1.096091
    13  H    3.998368   2.414624   6.487415   4.239310   1.094115
                   11         12         13
    11  H    0.000000
    12  H    1.767562   0.000000
    13  H    1.778879   1.778879   0.000000
 Stoichiometry    C5H4Cl2N2
 Framework group  CS[SG(C5H2Cl2N2),X(H2)]
 Deg. of freedom    22
 Full point group                 CS      NOp   2
 Largest Abelian subgroup         CS      NOp   2
 Largest concise Abelian subgroup CS      NOp   2
                         Standard orientation:                         
 ---------------------------------------------------------------------
 Center     Atomic      Atomic             Coordinates (Angstroms)
 Number     Number       Type             X           Y           Z
 ---------------------------------------------------------------------
      1          6           0        0.486167   -1.315771    0.000000
      2          7           0        0.929596   -0.054685    0.000000
      3          6           0        0.000000    0.893146    0.000000
      4          6           0       -1.378157    0.643456    0.000000
      5          6           0       -1.708373   -0.720377    0.000000
      6          7           0       -0.783584   -1.713608    0.000000
      7          1           0       -2.746519   -1.031091    0.000000
      8         17           0        1.754577   -2.616826    0.000000
      9         17           0        0.595807    2.619680    0.000000
     10          6           0       -2.425700    1.723997    0.000000
     11          1           0       -2.323840    2.364287    0.883781
     12          1           0       -2.323840    2.364287   -0.883781
     13          1           0       -3.428039    1.285359    0.000000
 ---------------------------------------------------------------------
 Rotational constants (GHZ):      2.1099565      0.7469388      0.5535533
 Standard basis: 6-21G (6D, 7F)
 There are    75 symmetry adapted cartesian basis functions of A'  symmetry.
 There are    22 symmetry adapted cartesian basis functions of A"  symmetry.
 There are    75 symmetry adapted basis functions of A'  symmetry.
 There are    22 symmetry adapted basis functions of A"  symmetry.
    97 basis functions,   222 primitive gaussians,    97 cartesian basis functions
    41 alpha electrons       41 beta electrons
       nuclear repulsion energy       552.5567300552 Hartrees.
 NAtoms=   13 NActive=   13 NUniq=   12 SFac= 1.17D+00 NAtFMM=   60 NAOKFM=F Big=F
 Integral buffers will be    262144 words long.
 Raffenetti 2 integral format.
 Two-electron integral symmetry is turned on.
 One-electron integrals computed using PRISM.
 NBasis=    97 RedAO= T EigKep=  6.28D-03  NBF=    75    22
 NBsUse=    97 1.00D-06 EigRej= -1.00D+00 NBFU=    75    22
 Initial guess from the checkpoint file:  "D:\mindmap\gaussian\calculate\opt_freq\QM1\NMR.chk"
 B after Tr=     0.000000    0.000000    0.000000
         Rot=    1.000000    0.000000    0.000000   -0.000876 Ang=  -0.10 deg.
 Initial guess orbital symmetries:
       Occupied  (A') (A') (A') (A') (A') (A') (A') (A') (A') (A')
                 (A') (A') (A") (A') (A') (A") (A') (A') (A') (A')
                 (A') (A') (A') (A') (A') (A') (A') (A") (A') (A')
                 (A") (A') (A') (A") (A") (A') (A') (A') (A") (A")
                 (A')
       Virtual   (A') (A') (A') (A') (A') (A') (A') (A') (A') (A')
                 (A') (A') (A') (A') (A') (A') (A') (A') (A') (A')
                 (A') (A') (A') (A') (A') (A') (A') (A') (A') (A')
                 (A') (A') (A') (A') (A') (A') (A') (A') (A') (A')
                 (A') (A') (A") (A") (A") (A") (A") (A") (A") (A")
                 (A") (A") (A") (A") (A") (A")
 Keep R1 ints in memory in symmetry-blocked form, NReq=17529400.
 Requested convergence on RMS density matrix=1.00D-08 within 128 cycles.
 Requested convergence on MAX density matrix=1.00D-06.
 Requested convergence on             energy=1.00D-06.
 No special actions if energy rises.
 SCF Done:  E(RB3LYP) =  -1222.43816139     A.U. after   10 cycles
            NFock= 10  Conv=0.10D-07     -V/T= 2.0027
 Calling FoFJK, ICntrl=      2127 FMM=F ISym2X=1 I1Cent= 0 IOpClX= 0 NMat=1 NMatS=1 NMatT=0.
 ***** Axes restored to original set *****
 -------------------------------------------------------------------
 Center     Atomic                   Forces (Hartrees/Bohr)
 Number     Number              X              Y              Z
 -------------------------------------------------------------------
      1        6          -0.000931006    0.000969929    0.000000000
      2        7           0.001530300   -0.000470485    0.000000000
      3        6          -0.001555590   -0.000723191    0.000000000
      4        6          -0.000286374    0.000566792    0.000000000
      5        6           0.000718157   -0.000015784    0.000000000
      6        7          -0.000212240   -0.000458235    0.000000000
      7        1          -0.000075185    0.000125448    0.000000000
      8       17           0.000390555   -0.000004057    0.000000000
      9       17           0.000300748   -0.000122883    0.000000000
     10        6           0.000790245    0.000296152    0.000000000
     11        1          -0.000278961    0.000070092   -0.000229801
     12        1          -0.000278961    0.000070092    0.000229801
     13        1          -0.000111689   -0.000303870    0.000000000
 -------------------------------------------------------------------
 Cartesian Forces:  Max     0.001555590 RMS     0.000502696

 GradGradGradGradGradGradGradGradGradGradGradGradGradGradGradGradGradGrad
 Berny optimization.
 Using GEDIIS/GDIIS optimizer.
 FormGI is forming the generalized inverse of G from B-inverse, IUseBI=4.
 Internal  Forces:  Max     0.001040079 RMS     0.000252897
 Search for a local minimum.
 Step number   4 out of a maximum of   65
 All quantities printed in internal units (Hartrees-Bohrs-Radians)
 Mixed Optimization -- En-DIIS/RFO-DIIS
 Swapping is turned off.
 Update second derivatives using D2CorX and points    1    2    3    4
 DE= -4.60D-05 DEPred=-3.84D-05 R= 1.20D+00
 TightC=F SS=  1.41D+00  RLast= 1.88D-02 DXNew= 8.4354D-01 5.6446D-02
 Trust test= 1.20D+00 RLast= 1.88D-02 DXMaxT set to 5.02D-01
 ITU=  1  1  1  0
     Eigenvalues ---    0.00237   0.01208   0.02006   0.02083   0.02109
     Eigenvalues ---    0.02206   0.02237   0.02254   0.06985   0.06992
     Eigenvalues ---    0.15011   0.16000   0.16008   0.16110   0.16963
     Eigenvalues ---    0.23780   0.24972   0.25000   0.25093   0.25806
     Eigenvalues ---    0.26177   0.28636   0.30233   0.33650   0.37230
     Eigenvalues ---    0.37239   0.37876   0.42694   0.44589   0.47784
     Eigenvalues ---    0.50645   0.51545   0.55206
 En-DIIS/RFO-DIIS IScMMF=        0 using points:     4    3
 RFO step:  Lambda=-6.01427230D-06.
 DidBck=F Rises=F RFO-DIIS coefs:    1.19826   -0.19826
 Iteration  1 RMS(Cart)=  0.00081741 RMS(Int)=  0.00000061
 Iteration  2 RMS(Cart)=  0.00000079 RMS(Int)=  0.00000023
 ClnCor:  largest displacement from symmetrization is 8.31D-10 for atom    12.
 Variable       Old X    -DE/DX   Delta X   Delta X   Delta X     New X
                                 (Linear)    (Quad)   (Total)
    R1        2.52614   0.00087   0.00066   0.00138   0.00203   2.52817
    R2        2.51450  -0.00026  -0.00053  -0.00054  -0.00107   2.51343
    R3        3.43369  -0.00037   0.00163  -0.00178  -0.00015   3.43354
    R4        2.50881  -0.00104  -0.00113  -0.00185  -0.00298   2.50583
    R5        2.64674   0.00064   0.00040   0.00136   0.00176   2.64850
    R6        3.45148   0.00030   0.00210   0.00070   0.00280   3.45428
    R7        2.65174  -0.00036   0.00042  -0.00123  -0.00081   2.65093
    R8        2.84397   0.00016  -0.00032   0.00048   0.00017   2.84414
    R9        2.56456   0.00029   0.00052   0.00045   0.00097   2.56553
   R10        2.04779   0.00012   0.00028   0.00008   0.00036   2.04816
   R11        2.07131  -0.00034  -0.00027  -0.00069  -0.00096   2.07035
   R12        2.07131  -0.00034  -0.00027  -0.00069  -0.00096   2.07035
   R13        2.06758  -0.00032  -0.00043  -0.00055  -0.00097   2.06660
    A1        2.21255   0.00004  -0.00032   0.00044   0.00012   2.21267
    A2        2.03078  -0.00022   0.00009  -0.00113  -0.00104   2.02974
    A3        2.03986   0.00018   0.00022   0.00069   0.00092   2.04078
    A4        2.02779  -0.00017   0.00029  -0.00102  -0.00074   2.02705
    A5        2.16725   0.00016   0.00030   0.00064   0.00094   2.16819
    A6        2.03361   0.00010   0.00083   0.00010   0.00093   2.03455
    A7        2.08232  -0.00026  -0.00113  -0.00074  -0.00187   2.08045
    A8        1.98758   0.00011  -0.00035   0.00035   0.00001   1.98759
    A9        2.16146  -0.00003   0.00020   0.00000   0.00020   2.16165
   A10        2.13415  -0.00008   0.00015  -0.00035  -0.00020   2.13395
   A11        2.15431  -0.00018  -0.00012  -0.00073  -0.00085   2.15347
   A12        2.09916   0.00017   0.00017   0.00086   0.00104   2.10019
   A13        2.02971   0.00001  -0.00006  -0.00013  -0.00019   2.02952
   A14        2.01689   0.00005   0.00020   0.00032   0.00052   2.01741
   A15        1.93342  -0.00014   0.00042  -0.00110  -0.00068   1.93274
   A16        1.93342  -0.00014   0.00042  -0.00110  -0.00068   1.93274
   A17        1.92818  -0.00008   0.00038  -0.00070  -0.00032   1.92786
   A18        1.87575   0.00014  -0.00065   0.00117   0.00053   1.87627
   A19        1.89582   0.00011  -0.00032   0.00093   0.00061   1.89643
   A20        1.89582   0.00011  -0.00032   0.00093   0.00061   1.89643
    D1        0.00000   0.00000   0.00000   0.00000   0.00000   0.00000
    D2        3.14159   0.00000   0.00000   0.00000   0.00000   3.14159
    D3        0.00000   0.00000   0.00000   0.00000   0.00000   0.00000
    D4        3.14159   0.00000   0.00000   0.00000   0.00000   3.14159
    D5        0.00000   0.00000   0.00000   0.00000   0.00000   0.00000
    D6        3.14159   0.00000   0.00000   0.00000   0.00000   3.14159
    D7        0.00000   0.00000   0.00000   0.00000   0.00000   0.00000
    D8        3.14159   0.00000   0.00000   0.00000   0.00000   3.14159
    D9        3.14159   0.00000   0.00000   0.00000   0.00000   3.14159
   D10        0.00000   0.00000   0.00000   0.00000   0.00000   0.00000
   D11        0.00000   0.00000   0.00000   0.00000   0.00000   0.00000
   D12        3.14159   0.00000   0.00000   0.00000   0.00000   3.14159
   D13        3.14159   0.00000   0.00000   0.00000   0.00000   3.14159
   D14        0.00000   0.00000   0.00000   0.00000   0.00000   0.00000
   D15       -1.03996   0.00000   0.00013  -0.00002   0.00011  -1.03985
   D16        1.03996   0.00000  -0.00013   0.00002  -0.00011   1.03985
   D17        3.14159   0.00000   0.00000   0.00000   0.00000   3.14159
   D18        2.10163   0.00000   0.00013  -0.00002   0.00011   2.10174
   D19       -2.10163   0.00000  -0.00013   0.00002  -0.00011  -2.10174
   D20        0.00000   0.00000   0.00000   0.00000   0.00000   0.00000
   D21        0.00000   0.00000   0.00000   0.00000   0.00000   0.00000
   D22        3.14159   0.00000   0.00000   0.00000   0.00000   3.14159
         Item               Value     Threshold  Converged?
 Maximum Force            0.001040     0.000450     NO 
 RMS     Force            0.000253     0.000300     YES
 Maximum Displacement     0.002966     0.001800     NO 
 RMS     Displacement     0.000818     0.001200     YES
 Predicted change in Energy=-5.409613D-06
 GradGradGradGradGradGradGradGradGradGradGradGradGradGradGradGradGradGrad

                          Input orientation:                          
 ---------------------------------------------------------------------
 Center     Atomic      Atomic             Coordinates (Angstroms)
 Number     Number       Type             X           Y           Z
 ---------------------------------------------------------------------
      1          6           0       -1.404684    0.100255    0.000000
      2          7           0       -0.440657   -0.827375    0.000000
      3          6           0        0.805711   -0.374696    0.000000
      4          6           0        1.151109    0.983603    0.000000
      5          6           0        0.047903    1.850104    0.000000
      6          7           0       -1.239799    1.420045    0.000000
      7          1           0        0.195282    2.923874    0.000000
      8         17           0       -3.114148   -0.515415    0.000000
      9         17           0        2.132343   -1.632219    0.000000
     10          6           0        2.569075    1.488138    0.000000
     11          1           0        3.108486    1.129405    0.883541
     12          1           0        3.108486    1.129405   -0.883541
     13          1           0        2.585717    2.581611    0.000000
 ---------------------------------------------------------------------
                    Distance matrix (angstroms):
                    1          2          3          4          5
     1  C    0.000000
     2  N    1.337851   0.000000
     3  C    2.260846   1.326029   0.000000
     4  C    2.704141   2.411091   1.401526   0.000000
     5  C    2.274198   2.721688   2.350321   1.402814   0.000000
     6  N    1.330049   2.385273   2.721251   2.430416   1.357619
     7  H    3.245414   3.804772   3.354577   2.162928   1.083837
     8  Cl   1.816953   2.691630   3.922384   4.521003   3.948956
     9  Cl   3.938531   2.695942   1.827927   2.793805   4.058505
    10  C    4.209154   3.797379   2.565074   1.505053   2.547023
    11  H    4.712589   4.148018   2.888899   2.152494   3.266071
    12  H    4.712589   4.148018   2.888899   2.152494   3.266071
    13  H    4.698981   4.558523   3.450822   2.147494   2.641136
                    6          7          8          9         10
     6  N    0.000000
     7  H    2.078692   0.000000
     8  Cl   2.694288   4.772949   0.000000
     9  Cl   4.548369   4.950777   5.364039   0.000000
    10  C    3.809482   2.774208   6.026047   3.150772   0.000000
    11  H    4.446651   3.533769   6.496711   3.059422   1.095582
    12  H    4.446651   3.533769   6.496711   3.059422   1.095582
    13  H    3.997976   2.414813   6.486913   4.238150   1.093600
                   11         12         13
    11  H    0.000000
    12  H    1.767081   0.000000
    13  H    1.778437   1.778437   0.000000
 Stoichiometry    C5H4Cl2N2
 Framework group  CS[SG(C5H2Cl2N2),X(H2)]
 Deg. of freedom    22
 Full point group                 CS      NOp   2
 Largest Abelian subgroup         CS      NOp   2
 Largest concise Abelian subgroup CS      NOp   2
                         Standard orientation:                         
 ---------------------------------------------------------------------
 Center     Atomic      Atomic             Coordinates (Angstroms)
 Number     Number       Type             X           Y           Z
 ---------------------------------------------------------------------
      1          6           0        0.487266   -1.315846    0.000000
      2          7           0        0.929988   -0.053371    0.000000
[...]
    R6        3.45495  -0.00008   0.00000  -0.00047  -0.00047   3.45449
    R7        2.64998  -0.00015   0.00000  -0.00057  -0.00057   2.64941
    R8        2.84499  -0.00002   0.00000  -0.00004  -0.00004   2.84495
    R9        2.56650   0.00006   0.00000   0.00031   0.00031   2.56681
   R10        2.04817  -0.00006   0.00000  -0.00017  -0.00017   2.04800
   R11        2.07000   0.00008   0.00000   0.00023   0.00023   2.07023
   R12        2.07000   0.00008   0.00000   0.00023   0.00023   2.07023
   R13        2.06632   0.00010   0.00000   0.00028   0.00028   2.06660
    A1        2.21209   0.00001   0.00000   0.00001   0.00001   2.21209
    A2        2.02922  -0.00005   0.00000  -0.00042  -0.00042   2.02880
    A3        2.04188   0.00005   0.00000   0.00041   0.00041   2.04229
    A4        2.02702  -0.00004   0.00000  -0.00024  -0.00024   2.02678
    A5        2.16851   0.00001   0.00000   0.00009   0.00009   2.16860
    A6        2.03501  -0.00005   0.00000  -0.00024  -0.00024   2.03478
    A7        2.07966   0.00004   0.00000   0.00015   0.00015   2.07981
    A8        1.98745   0.00001   0.00000   0.00008   0.00008   1.98752
    A9        2.16143  -0.00003   0.00000  -0.00026  -0.00026   2.16117
   A10        2.13431   0.00002   0.00000   0.00019   0.00019   2.13449
   A11        2.15342   0.00000   0.00000  -0.00006  -0.00006   2.15336
   A12        2.10076   0.00001   0.00000   0.00028   0.00028   2.10104
   A13        2.02900  -0.00002   0.00000  -0.00021  -0.00021   2.02879
   A14        2.01789   0.00001   0.00000   0.00013   0.00013   2.01802
   A15        1.93235  -0.00001   0.00000  -0.00002  -0.00002   1.93233
   A16        1.93235  -0.00001   0.00000  -0.00002  -0.00002   1.93233
   A17        1.92729   0.00000   0.00000   0.00000   0.00000   1.92729
   A18        1.87683   0.00001   0.00000   0.00007   0.00007   1.87690
   A19        1.89686   0.00000   0.00000  -0.00001  -0.00001   1.89685
   A20        1.89686   0.00000   0.00000  -0.00001  -0.00001   1.89685
    D1        0.00000   0.00000   0.00000   0.00000   0.00000   0.00000
    D2        3.14159   0.00000   0.00000   0.00000   0.00000   3.14159
    D3        0.00000   0.00000   0.00000   0.00000   0.00000   0.00000
    D4        3.14159   0.00000   0.00000   0.00000   0.00000   3.14159
    D5        0.00000   0.00000   0.00000   0.00000   0.00000   0.00000
    D6        3.14159   0.00000   0.00000   0.00000   0.00000   3.14159
    D7        0.00000   0.00000   0.00000   0.00000   0.00000   0.00000
    D8        3.14159   0.00000   0.00000   0.00000   0.00000   3.14159
    D9        3.14159   0.00000   0.00000   0.00000   0.00000   3.14159
   D10        0.00000   0.00000   0.00000   0.00000   0.00000   0.00000
   D11        0.00000   0.00000   0.00000   0.00000   0.00000   0.00000
   D12        3.14159   0.00000   0.00000   0.00000   0.00000   3.14159
   D13        3.14159   0.00000   0.00000   0.00000   0.00000   3.14159
   D14        0.00000   0.00000   0.00000   0.00000   0.00000   0.00000
   D15       -1.03994   0.00000   0.00000  -0.00003  -0.00003  -1.03997
   D16        1.03994   0.00000   0.00000   0.00003   0.00003   1.03997
   D17        3.14159   0.00000   0.00000   0.00000   0.00000   3.14159
   D18        2.10165   0.00000   0.00000  -0.00003  -0.00003   2.10162
   D19       -2.10165   0.00000   0.00000   0.00003   0.00003  -2.10162
   D20        0.00000   0.00000   0.00000   0.00000   0.00000   0.00000
   D21        0.00000   0.00000   0.00000   0.00000   0.00000   0.00000
   D22        3.14159   0.00000   0.00000   0.00000   0.00000   3.14159
         Item               Value     Threshold  Converged?
 Maximum Force            0.000152     0.000450     YES
 RMS     Force            0.000045     0.000300     YES
 Maximum Displacement     0.001001     0.001800     YES
 RMS     Displacement     0.000229     0.001200     YES
 Predicted change in Energy=-2.562381D-07
 Optimization completed.
    -- Stationary point found.
                           ----------------------------
                           !   Optimized Parameters   !
                           ! (Angstroms and Degrees)  !
 --------------------------                            --------------------------
 ! Name  Definition              Value          Derivative Info.                !
 --------------------------------------------------------------------------------
 ! R1    R(1,2)                  1.3388         -DE/DX =    0.0001              !
 ! R2    R(1,6)                  1.3295         -DE/DX =   -0.0001              !
 ! R3    R(1,8)                  1.8161         -DE/DX =   -0.0002              !
 ! R4    R(2,3)                  1.3255         -DE/DX =    0.0                 !
 ! R5    R(3,4)                  1.402          -DE/DX =    0.0                 !
 ! R6    R(3,9)                  1.8283         -DE/DX =   -0.0001              !
 ! R7    R(4,5)                  1.4023         -DE/DX =   -0.0002              !
 ! R8    R(4,10)                 1.5055         -DE/DX =    0.0                 !
 ! R9    R(5,6)                  1.3581         -DE/DX =    0.0001              !
 ! R10   R(5,7)                  1.0838         -DE/DX =   -0.0001              !
 ! R11   R(10,11)                1.0954         -DE/DX =    0.0001              !
 ! R12   R(10,12)                1.0954         -DE/DX =    0.0001              !
 ! R13   R(10,13)                1.0934         -DE/DX =    0.0001              !
 ! A1    A(2,1,6)              126.7434         -DE/DX =    0.0                 !
 ! A2    A(2,1,8)              116.2656         -DE/DX =   -0.0001              !
 ! A3    A(6,1,8)              116.9911         -DE/DX =    0.0                 !
 ! A4    A(1,2,3)              116.1398         -DE/DX =    0.0                 !
 ! A5    A(2,3,4)              124.2463         -DE/DX =    0.0                 !
 ! A6    A(2,3,9)              116.5977         -DE/DX =   -0.0001              !
 ! A7    A(4,3,9)              119.156          -DE/DX =    0.0                 !
 ! A8    A(3,4,5)              113.8722         -DE/DX =    0.0                 !
 ! A9    A(3,4,10)             123.841          -DE/DX =    0.0                 !
 ! A10   A(5,4,10)             122.2868         -DE/DX =    0.0                 !
 ! A11   A(4,5,6)              123.3819         -DE/DX =    0.0                 !
 ! A12   A(4,5,7)              120.3648         -DE/DX =    0.0                 !
 ! A13   A(6,5,7)              116.2533         -DE/DX =    0.0                 !
 ! A14   A(1,6,5)              115.6164         -DE/DX =    0.0                 !
 ! A15   A(4,10,11)            110.7155         -DE/DX =    0.0                 !
 ! A16   A(4,10,12)            110.7155         -DE/DX =    0.0                 !
 ! A17   A(4,10,13)            110.4256         -DE/DX =    0.0                 !
 ! A18   A(11,10,12)           107.5343         -DE/DX =    0.0                 !
 ! A19   A(11,10,13)           108.6821         -DE/DX =    0.0                 !
 ! A20   A(12,10,13)           108.6821         -DE/DX =    0.0                 !
 ! D1    D(6,1,2,3)              0.0            -DE/DX =    0.0                 !
 ! D2    D(8,1,2,3)            180.0            -DE/DX =    0.0                 !
 ! D3    D(2,1,6,5)              0.0            -DE/DX =    0.0                 !
 ! D4    D(8,1,6,5)            180.0            -DE/DX =    0.0                 !
 ! D5    D(1,2,3,4)              0.0            -DE/DX =    0.0                 !
 ! D6    D(1,2,3,9)            180.0            -DE/DX =    0.0                 !
 ! D7    D(2,3,4,5)              0.0            -DE/DX =    0.0                 !
 ! D8    D(2,3,4,10)           180.0            -DE/DX =    0.0                 !
 ! D9    D(9,3,4,5)            180.0            -DE/DX =    0.0                 !
 ! D10   D(9,3,4,10)             0.0            -DE/DX =    0.0                 !
 ! D11   D(3,4,5,6)              0.0            -DE/DX =    0.0                 !
 ! D12   D(3,4,5,7)            180.0            -DE/DX =    0.0                 !
 ! D13   D(10,4,5,6)           180.0            -DE/DX =    0.0                 !
 ! D14   D(10,4,5,7)             0.0            -DE/DX =    0.0                 !
 ! D15   D(3,4,10,11)          -59.5843         -DE/DX =    0.0                 !
 ! D16   D(3,4,10,12)           59.5843         -DE/DX =    0.0                 !
 ! D17   D(3,4,10,13)          180.0            -DE/DX =    0.0                 !
 ! D18   D(5,4,10,11)          120.4157         -DE/DX =    0.0                 !
 ! D19   D(5,4,10,12)         -120.4157         -DE/DX =    0.0                 !
 ! D20   D(5,4,10,13)            0.0            -DE/DX =    0.0                 !
 ! D21   D(4,5,6,1)              0.0            -DE/DX =    0.0                 !
 ! D22   D(7,5,6,1)            180.0            -DE/DX =    0.0                 !
 --------------------------------------------------------------------------------
 GradGradGradGradGradGradGradGradGradGradGradGradGradGradGradGradGradGrad

 1|1|UNPC-DESKTOP-KC5UJLK|Freq|RB3LYP|6-21G|C5H4Cl2N2|23122|01-Apr-2022
 |0||#N Geom=AllCheck Guess=TCheck SCRF=Check GenChk RB3LYP/6-21G Freq|
 |Energy Calculation(GC)||0,1|C,-1.4054152182,0.1007334795,0.|N,-0.4405
 84629,-0.8274421626,0.|C,0.8052292684,-0.3747526841,0.|C,1.1509702696,
 0.9839437937,0.|C,0.0481848711,1.8501626631,0.|N,-1.23999558,1.4199165
 27,0.|H,0.1949844214,2.9240195597,0.|Cl,-3.113716519,-0.5157658796,0.|
 Cl,2.1328948079,-1.631701692,0.|C,2.5695585972,1.4880816239,0.|H,3.108
 3577438,1.1290669408,0.8835691013|H,3.1083577438,1.1290669408,-0.88356
 91013|H,2.5859971726,2.5814059301,0.||Version=IA32W-G09RevD.01|State=1
 -A'|HF=-1222.4381713|RMSD=6.165e-009|RMSF=7.824e-005|ZeroPoint=0.08460
 55|Thermal=0.0927895|Dipole=1.314376,1.1699411,0.|DipoleDeriv=2.103351
 5,0.4072292,0.,0.5667105,0.5869487,0.,0.,0.,0.1657715,-1.4067615,0.081
 7932,0.,0.0843391,-0.3680994,0.,0.,0.,-0.1557486,1.20641,-0.7127124,0.
 ,-0.6304132,0.9791427,0.,0.,0.,0.1051406,-0.0175643,0.3897427,0.,0.346
 5216,-0.5636129,0.,0.,0.,0.0376721,0.4110278,-0.2073012,0.,0.0549533,0
 .4693387,0.,0.,0.,-0.0033993,-0.852054,-0.0527314,0.,-0.5074099,-0.566
 9894,0.,0.,0.,-0.1934514,0.0493957,-0.0463388,0.,-0.0302675,-0.0415051
 ,0.,0.,0.,0.1197459,-0.896366,-0.2268605,0.,-0.2858393,-0.1836156,0.,0
 .,0.,-0.0934404,-0.576624,0.3884417,0.,0.4265015,-0.4791218,0.,0.,0.,-
 0.1044097,-0.1158801,-0.0326839,0.,0.0404832,0.1351953,0.,0.,0.,0.0280
 263,0.016805,-0.0193457,-0.0496585,-0.0072657,0.0669291,0.0586939,-0.0
 561347,0.039277,-0.0024969,0.016805,-0.0193457,0.0496585,-0.0072657,0.
 0669291,-0.0586939,0.0561347,-0.039277,-0.0024969,0.0614549,0.0501128,
 0.,-0.0510479,-0.1015395,0.,0.,0.,0.0990868|Polar=119.4318961,1.146103
 1,81.7549845,0.,0.,29.5499575|AAT=0.,0.,-0.1179496,0.,0.,-1.3327793,0.
 1649546,-0.0554419,0.,0.,0.,-0.1905425,0.,0.,0.1751268,1.3215576,-0.20
 35127,0.,0.,0.,0.7553933,0.,0.,0.7631287,-0.0032642,0.301492,0.,0.,0.,
 0.0716201,0.,0.,0.0673915,-0.1999511,0.5585103,0.,0.,0.,-1.1822463,0.,
 0.,-0.1059975,-0.39394,0.2751806,0.,0.,0.,0.69356,0.,0.,0.5183108,-1.1
 16859,-1.0756976,0.,0.,0.,-0.1399251,0.,0.,0.018201,-0.0108163,-0.1120
 554,0.,0.,0.,0.082088,0.,0.,0.5825455,0.1003304,-0.3621018,0.,0.,0.,-0
 .1755937,0.,0.,-0.4783308,0.3272725,0.1799687,0.,0.,0.,0.0252697,0.,0.
 ,-0.1621346,-0.0584135,0.3124406,0.,-0.0476141,0.2409865,0.0858622,-0.
 1280718,-0.0747764,0.18587,-0.084434,-0.042632,0.1508872,0.0476141,-0.
 2409865,0.0858622,0.1280718,0.0747764,0.18587,-0.084434,-0.042632,-0.1
 508872,0.,0.,-0.1925451,0.,0.,-0.1638543,0.2187203,-0.1221815,0.|GPTen
 s=0.,0.,66.7849128,0.,0.,-12.4442142,-14.4072084,15.4786912,0.|OptRot=
 0.,0.,-6.4057408,0.,0.,-1.607929,-6.4057408,-1.607929,0.|DQPolar=-49.2
 959633,52.7661326,-3.4701693,-29.0371542,0.,0.,-119.8965657,130.328604
 8,-10.4320391,109.5420105,0.,0.,0.,0.,0.,0.,46.5112303,26.9178901|PG=C
 S [SG(C5H2Cl2N2),X(H2)]|NImag=0||0.52818993,0.00416115,0.54050450,0.,0
 .,0.15641747,-0.18188822,0.08421936,0.,0.61075450,0.08440915,-0.157720
 56,0.,-0.04747641,0.33520141,0.,0.,-0.07438848,0.,0.,0.08788939,-0.131
 48913,0.06285990,0.,-0.28114458,-0.05790345,0.,0.56181767,0.01580246,0
 .04768761,0.,-0.07619014,-0.11619864,0.,0.05079576,0.53969442,0.,0.,0.
 00455248,0.,0.,-0.06795553,0.,0.,0.14777365,-0.00219328,0.02704602,0.,
 -0.00438600,-0.04514646,0.,-0.12150416,-0.07097066,0.,0.65353824,0.023
 97960,-0.07284715,0.,-0.08900174,0.00250366,0.,-0.01447599,-0.26298815
 ,0.,0.01020998,0.61295451,0.,0.,-0.00866637,0.,0.,0.02140216,0.,0.,-0.
 07828196,0.,0.,0.17246720,-0.01288001,-0.11059974,0.,-0.08226233,0.027
 74923,0.,0.06202621,0.07596610,0.,-0.21559494,0.04255409,0.,0.58282343
 ,-0.06292525,-0.05987288,0.,0.00503581,0.00288226,0.,0.02579545,-0.055
 79422,0.,0.11135612,-0.20277945,0.,0.03111799,0.77297995,0.,0.,0.00598
 369,0.,0.,-0.00653298,0.,0.,0.00860963,0.,0.,-0.07403712,0.,0.,0.16290
 714,-0.10695561,-0.03792832,0.,0.04661717,0.01875678,0.,-0.02935472,-0
 .03953556,0.,-0.06843235,0.04362198,0.,-0.25272019,-0.06898087,0.,0.44
 831411,-0.02902763,-0.26746533,0.,0.09073890,-0.07846661,0.,-0.0624014
 3,-0.05306609,0.,-0.00858269,0.06666703,0.,-0.05198393,-0.12473694,0.,
 0.11837667,0.49064101,0.,0.,-0.07744390,0.,0.,0.03455551,0.,0.,-0.0066
 8964,0.,0.,0.02075309,0.,0.,-0.06693808,0.,0.,0.09101433,-0.00278746,-
 0.00341795,0.,0.00006517,-0.00057187,0.,-0.00364073,0.00223217,0.,0.00
 374840,0.02577278,0.,-0.05518875,-0.02661517,0.,-0.01475704,-0.0362159
 9,0.,0.07175915,0.00068924,0.00296965,0.,0.00067867,0.00044273,0.,0.00
 186053,-0.00023849,0.,-0.00578863,-0.01574617,0.,-0.02760746,-0.340266
 22,0.,-0.00756778,-0.00592323,0.,0.03729815,0.35794382,0.,0.,0.0102258
 0,0.,0.,-0.00348311,0.,0.,0.00792534,0.,0.,0.00883709,0.,0.,-0.0445065
 9,0.,0.,-0.00240971,0.,0.,0.02734047,-0.09876817,-0.02803703,0.,-0.052
 93076,0.00538472,0.,0.00636260,-0.00279839,0.,-0.00278227,-0.00110014,
 0.,0.00370380,0.00366524,0.,-0.02075371,-0.02549344,0.,-0.00058671,-0.
 00024036,0.,0.16817299,-0.02852384,-0.02994460,0.,0.01449309,0.0042608
 7,0.,0.00157321,-0.00246243,0.,-0.00175347,0.00168931,0.,0.00339928,0.
 00052563,0.,-0.03519133,-0.02782903,0.,-0.00071026,-0.00016743,0.,0.04
 754834,0.05288650,0.,0.,-0.02486112,0.,0.,0.00205200,0.,0.,0.00591994,
 0.,0.,-0.00059500,0.,0.,0.00604182,0.,0.,0.00210502,0.,0.,0.00023515,0
 .,0.,0.01051160,0.00993151,0.00038972,0.,-0.05850528,0.01226188,0.,-0.
 04858605,0.05004406,0.,-0.01135634,0.00771370,0.,0.00473126,-0.0017775
 1,0.,-0.00385787,0.00272457,0.,-0.00033439,0.00038004,0.,-0.00158415,-
 0.00030504,0.,0.10734973,-0.00982879,-0.00124908,0.,0.01771002,0.01139
 478,0.,0.02922934,-0.08540820,0.,0.03187921,-0.02552887,0.,-0.00962263
 ,-0.00284146,0.,0.00462261,0.00134126,0.,0.00148840,-0.00076333,0.,0.0
 0126652,0.00061536,0.,-0.06810707,0.10536809,0.,0.,0.00746308,0.,0.,0.
 00019012,0.,0.,-0.02561612,0.,0.,0.00747287,0.,0.,0.00500195,0.,0.,-0.
 00302517,0.,0.,-0.00088130,0.,0.,0.00015141,0.,0.,0.01081795,-0.002499
 94,0.00043945,0.,0.00482253,0.00399378,0.,-0.00761220,-0.01138687,0.,-
 0.17975208,-0.03090790,0.,-0.03234136,-0.00847402,0.,0.00342940,0.0018
 9795,0.,0.00182687,-0.00077226,0.,-0.00009371,-0.00024062,0.,-0.000174
 36,0.00241202,0.,0.47410545,0.00141660,-0.00298032,0.,-0.00204301,-0.0
 0440088,0.,-0.03158491,-0.01213685,0.,-0.03740607,-0.10021220,0.,0.017
 70253,0.01107521,0.,0.00432336,-0.00124504,0.,0.00190269,0.00061832,0.
 ,0.00029344,0.00060733,0.,-0.00362141,-0.00160637,0.,-0.03481934,0.578
 74847,0.,0.,0.00061963,0.,0.,0.00655061,0.,0.,0.00108043,0.,0.,-0.0728
 8066,0.,0.,0.00420041,0.,0.,0.00906703,0.,0.,-0.00392239,0.,0.,-0.0016
 6188,0.,0.,-0.00194397,0.,0.,0.54586205,0.00043295,0.00060546,0.000090
 69,-0.00034569,0.00006054,0.00106385,-0.00014554,0.00296876,-0.0001083
 2,-0.02359396,0.00923634,-0.02646812,-0.00170556,-0.00291280,-0.000686
 97,-0.00122910,-0.00021581,0.00163115,0.00000934,0.00000749,-0.0005433
 4,-0.00032539,-0.00019471,-0.00028509,0.00098464,-0.00080512,-0.000056
 20,-0.10579992,0.04086750,-0.10332884,0.12310561,-0.00040960,0.0002423
 1,0.00009018,0.00097909,0.00029556,0.00067028,-0.00241289,0.00030996,-
 0.00037534,-0.00528486,0.00346900,-0.01170807,-0.00075437,-0.00068256,
 0.00001610,0.00015833,-0.00001969,0.00037485,-0.00015582,0.00017617,0.
 00019801,-0.00014645,-0.00008758,-0.00011758,0.00036276,-0.00060547,-0
 .00012037,0.04026768,-0.07731503,0.07151092,-0.04403977,0.08180527,0.0
 0004884,-0.00006490,-0.00005064,0.00010432,-0.00009545,-0.00015606,-0.
 00132547,0.00097006,0.00078711,0.00120194,-0.00177243,0.00280997,0.000
 65519,-0.00009040,-0.00035241,0.00022764,-0.00011405,-0.00036605,0.000
 04522,-0.00004517,0.00018199,-0.00000429,-0.00000718,0.00005507,0.0008
 9683,0.00001472,0.00006442,-0.10311651,0.07105510,-0.21876182,0.113604
 60,-0.07915643,0.23940784,0.00043295,0.00060546,-0.00009069,-0.0003456
 9,0.00006054,-0.00106385,-0.00014554,0.00296876,0.00010832,-0.02359396
 ,0.00923634,0.02646812,-0.00170556,-0.00291280,0.00068697,-0.00122910,
 -0.00021581,-0.00163115,0.00000934,0.00000749,0.00054334,-0.00032539,-
 0.00019471,0.00028509,0.00098464,-0.00080512,0.00005620,-0.10579992,0.
 04086750,0.10332884,0.00853400,-0.00552713,-0.01394292,0.12310561,-0.0
 0040960,0.00024231,-0.00009018,0.00097909,0.00029556,-0.00067028,-0.00
 241289,0.00030996,0.00037534,-0.00528486,0.00346900,0.01170807,-0.0007
 5437,-0.00068256,-0.00001610,0.00015833,-0.00001969,-0.00037485,-0.000
 15582,0.00017617,-0.00019801,-0.00014645,-0.00008758,0.00011758,0.0003
 6276,-0.00060547,0.00012037,0.04026768,-0.07731503,-0.07151092,-0.0055
 2713,0.00313424,0.01023927,-0.04403977,0.08180527,-0.00004884,0.000064
 90,-0.00005064,-0.00010432,0.00009545,-0.00015606,0.00132547,-0.000970
 06,0.00078711,-0.00120194,0.00177243,0.00280997,-0.00065519,0.00009040
 ,-0.00035241,-0.00022764,0.00011405,-0.00036605,-0.00004522,0.00004517
 ,0.00018199,0.00000429,0.00000718,0.00005507,-0.00089683,-0.00001472,0
 .00006442,0.10311651,-0.07105510,-0.21876182,0.01394292,-0.01023927,-0
 .02434088,-0.11360460,0.07915643,0.23940784,0.00047447,-0.00034349,0.,
 -0.00045082,-0.00157844,0.,-0.00658383,0.00010355,0.,-0.00409730,-0.03
 683905,0.,0.00111400,-0.00237220,0.,0.00092899,0.00039865,0.,-0.000123
 21,0.00105489,0.,-0.00008914,0.00010006,0.,0.00041666,0.00056059,0.,-0
 .05011075,0.00210114,0.,0.00007862,0.01696303,0.00160461,0.00007862,0.
 01696303,-0.00160461,0.05836369,0.00066651,0.00043354,0.,-0.00012272,-
 0.00049014,0.,-0.00092264,0.00029112,0.,-0.00027363,-0.01065051,0.,0.0
 0283328,0.00019325,0.,-0.00081420,0.00012234,0.,-0.00085131,0.00077799
 ,0.,-0.00019600,-0.00000635,0.,-0.00042846,-0.00011124,0.,-0.00267755,
 -0.31383761,0.,-0.00005076,-0.01072217,-0.00093314,-0.00005076,-0.0107
 2217,0.00093314,0.00288825,0.34472195,0.,0.,0.00019900,0.,0.,0.0000324
 3,0.,0.,0.00110756,0.,0.,-0.00209124,0.,0.,-0.00002505,0.,0.,-0.000256
 38,0.,0.,0.00027525,0.,0.,-0.00000908,0.,0.,0.00024034,0.,0.,-0.049447
 63,0.00114365,0.02885672,0.00072145,-0.00114365,-0.02885672,0.00072145
 ,0.,0.,0.04853191||0.00016935,-0.00015075,0.,-0.00002685,0.00011935,0.
 ,-0.00009361,0.00000531,0.,0.00012491,-0.00013140,0.,-0.00019564,0.000
 02872,0.,0.00005411,0.00014171,0.,0.00003466,0.00005642,0.,-0.00015914
 ,-0.00000338,0.,0.00006260,-0.00004398,0.,0.00007985,0.00005477,0.,-0.
 00003097,0.00001516,-0.00006950,-0.00003097,0.00001516,0.00006950,0.00
 001169,-0.00010710,0.|||@


 I think that all right-thinking people in this
 country are sick and tired of being told that
 ordinary, decent people are fed up in this country
 with being sick and tired.  I'm certainly not!
 But I'm sick and tired of being told that I am!
                               -- Monty Python
 Job cpu time:       0 days  0 hours  0 minutes 59.0 seconds.
 File lengths (MBytes):  RWF=     23 Int=      0 D2E=      0 Chk=      2 Scr=      1
 Normal termination of Gaussian 09 at Fri Apr 01 16:51:25 2022.
