Energy Calculation(GC)                                                  
Freq      RB3LYP                                                      STO-3G              
Number of atoms                            I               13
Info1-9                                    I   N=           9
          37          36        1002           0           0         100
           6          18        -502
Charge                                     I                0
Multiplicity                               I                1
Number of electrons                        I               82
Number of alpha electrons                  I               41
Number of beta electrons                   I               41
Number of basis functions                  I               57
Number of independent functions            I               57
Number of point charges in /Mol/           I                0
Number of translation vectors              I                0
Atomic numbers                             I   N=          13
           6           7           6           6           6           7
           1          17          17           6           1           1
           1
Nuclear charges                            R   N=          13
  6.00000000E+00  7.00000000E+00  6.00000000E+00  6.00000000E+00  6.00000000E+00
  7.00000000E+00  1.00000000E+00  1.70000000E+01  1.70000000E+01  6.00000000E+00
  1.00000000E+00  1.00000000E+00  1.00000000E+00
Current cartesian coordinates              R   N=          39
  9.77404935E-01 -2.49206798E+00  0.00000000E+00  1.91257244E+00 -4.00185832E-02
  0.00000000E+00 -2.22044605E-16  1.72869549E+00  0.00000000E+00 -2.63437998E+00
  1.18439057E+00  0.00000000E+00 -3.23951536E+00 -1.42073930E+00  0.00000000E+00
 -1.48303955E+00 -3.37998460E+00  0.00000000E+00 -5.23779742E+00 -2.02084625E+00
  0.00000000E+00  3.38345263E+00 -4.91879059E+00  0.00000000E+00  1.03175216E+00
  4.98621395E+00  0.00000000E+00 -4.66175386E+00  3.24943936E+00  0.00000000E+00
 -4.46079390E+00  4.46100705E+00  1.68428626E+00 -4.46079390E+00  4.46100705E+00
 -1.68428626E+00 -6.55636087E+00  2.39434843E+00  0.00000000E+00
Force Field                                I                0
Int Atom Types                             I   N=          13
           0           0           0           0           0           0
           0           0           0           0           0           0
           0
MM charges                                 R   N=          13
  0.00000000E+00  0.00000000E+00  0.00000000E+00  0.00000000E+00  0.00000000E+00
  0.00000000E+00  0.00000000E+00  0.00000000E+00  0.00000000E+00  0.00000000E+00
  0.00000000E+00  0.00000000E+00  0.00000000E+00
Integer atomic weights                     I   N=          13
          12          14          12          12          12          14
           1          35          35          12           1           1
           1
Real atomic weights                        R   N=          13
  1.20000000E+01  1.40030740E+01  1.20000000E+01  1.20000000E+01  1.20000000E+01
  1.40030740E+01  1.00782504E+00  3.49688527E+01  3.49688527E+01  1.20000000E+01
  1.00782504E+00  1.00782504E+00  1.00782504E+00
Atom fragment info                         I   N=          13
           0           0           0           0           0           0
           0           0           0           0           0           0
           0
Atom residue num                           I   N=          13
           0           0           0           0           0           0
           0           0           0           0           0           0
           0
Nuclear spins                              I   N=          13
           0           2           0           0           0           2
           1           3           3           0           1           1
           1
Nuclear ZEff                               R   N=          13
 -3.60000000E+00 -4.55000000E+00 -3.60000000E+00 -3.60000000E+00 -3.60000000E+00
 -4.55000000E+00 -1.00000000E+00 -1.42400000E+01 -1.42400000E+01 -3.60000000E+00
 -1.00000000E+00 -1.00000000E+00 -1.00000000E+00
Nuclear ZNuc                               R   N=          13
  6.00000000E+00  7.00000000E+00  6.00000000E+00  6.00000000E+00  6.00000000E+00
  7.00000000E+00  1.00000000E+00  1.70000000E+01  1.70000000E+01  6.00000000E+00
  1.00000000E+00  1.00000000E+00  1.00000000E+00
Nuclear QMom                               R   N=          13
  0.00000000E+00  2.04400000E+00  0.00000000E+00  0.00000000E+00  0.00000000E+00
  2.04400000E+00  0.00000000E+00 -8.16500000E+00 -8.16500000E+00  0.00000000E+00
  0.00000000E+00  0.00000000E+00  0.00000000E+00
Nuclear GFac                               R   N=          13
  0.00000000E+00  4.03761000E-01  0.00000000E+00  0.00000000E+00  0.00000000E+00
  4.03761000E-01  2.79284600E+00  8.21874000E-01  8.21874000E-01  0.00000000E+00
  2.79284600E+00  2.79284600E+00  2.79284600E+00
MicOpt                                     I   N=          13
          -1          -1          -1          -1          -1          -1
          -1          -1          -1          -1          -1          -1
          -1
Number of contracted shells                I               24
Number of primitive shells                 I               72
Pure/Cartesian d shells                    I                0
Pure/Cartesian f shells                    I                0
Highest angular momentum                   I                1
Largest degree of contraction              I                3
Shell types                                I   N=          24
           0          -1           0          -1           0          -1
           0          -1           0          -1           0          -1
           0           0          -1          -1           0          -1
          -1           0          -1           0           0           0
Number of primitives per shell             I   N=          24
           3           3           3           3           3           3
           3           3           3           3           3           3
           3           3           3           3           3           3
           3           3           3           3           3           3
Shell to atom map                          I   N=          24
           1           1           2           2           3           3
           4           4           5           5           6           6
           7           8           8           8           9           9
           9          10          10          11          12          13
Primitive exponents                        R   N=          72
  7.16168373E+01  1.30450963E+01  3.53051216E+00  2.94124936E+00  6.83483096E-01
  2.22289916E-01  9.91061690E+01  1.80523124E+01  4.88566024E+00  3.78045588E+00
  8.78496645E-01  2.85714374E-01  7.16168373E+01  1.30450963E+01  3.53051216E+00
  2.94124936E+00  6.83483096E-01  2.22289916E-01  7.16168373E+01  1.30450963E+01
  3.53051216E+00  2.94124936E+00  6.83483096E-01  2.22289916E-01  7.16168373E+01
  1.30450963E+01  3.53051216E+00  2.94124936E+00  6.83483096E-01  2.22289916E-01
  9.91061690E+01  1.80523124E+01  4.88566024E+00  3.78045588E+00  8.78496645E-01
  2.85714374E-01  3.42525091E+00  6.23913730E-01  1.68855404E-01  6.01345614E+02
  1.09535854E+02  2.96446769E+01  3.89604189E+01  9.05356348E+00  2.94449983E+00
  2.12938650E+00  5.94093427E-01  2.32524141E-01  6.01345614E+02  1.09535854E+02
  2.96446769E+01  3.89604189E+01  9.05356348E+00  2.94449983E+00  2.12938650E+00
  5.94093427E-01  2.32524141E-01  7.16168373E+01  1.30450963E+01  3.53051216E+00
  2.94124936E+00  6.83483096E-01  2.22289916E-01  3.42525091E+00  6.23913730E-01
  1.68855404E-01  3.42525091E+00  6.23913730E-01  1.68855404E-01  3.42525091E+00
  6.23913730E-01  1.68855404E-01
Contraction coefficients                   R   N=          72
  1.54328967E-01  5.35328142E-01  4.44634542E-01 -9.99672292E-02  3.99512826E-01
  7.00115469E-01  1.54328967E-01  5.35328142E-01  4.44634542E-01 -9.99672292E-02
  3.99512826E-01  7.00115469E-01  1.54328967E-01  5.35328142E-01  4.44634542E-01
 -9.99672292E-02  3.99512826E-01  7.00115469E-01  1.54328967E-01  5.35328142E-01
  4.44634542E-01 -9.99672292E-02  3.99512826E-01  7.00115469E-01  1.54328967E-01
  5.35328142E-01  4.44634542E-01 -9.99672292E-02  3.99512826E-01  7.00115469E-01
  1.54328967E-01  5.35328142E-01  4.44634542E-01 -9.99672292E-02  3.99512826E-01
  7.00115469E-01  1.54328967E-01  5.35328142E-01  4.44634542E-01  1.54328967E-01
  5.35328142E-01  4.44634542E-01 -9.99672292E-02  3.99512826E-01  7.00115469E-01
 -2.19620369E-01  2.25595434E-01  9.00398426E-01  1.54328967E-01  5.35328142E-01
  4.44634542E-01 -9.99672292E-02  3.99512826E-01  7.00115469E-01 -2.19620369E-01
  2.25595434E-01  9.00398426E-01  1.54328967E-01  5.35328142E-01  4.44634542E-01
 -9.99672292E-02  3.99512826E-01  7.00115469E-01  1.54328967E-01  5.35328142E-01
  4.44634542E-01  1.54328967E-01  5.35328142E-01  4.44634542E-01  1.54328967E-01
  5.35328142E-01  4.44634542E-01
P(S=P) Contraction coefficients            R   N=          72
  0.00000000E+00  0.00000000E+00  0.00000000E+00  1.55916275E-01  6.07683719E-01
  3.91957393E-01  0.00000000E+00  0.00000000E+00  0.00000000E+00  1.55916275E-01
  6.07683719E-01  3.91957393E-01  0.00000000E+00  0.00000000E+00  0.00000000E+00
  1.55916275E-01  6.07683719E-01  3.91957393E-01  0.00000000E+00  0.00000000E+00
  0.00000000E+00  1.55916275E-01  6.07683719E-01  3.91957393E-01  0.00000000E+00
  0.00000000E+00  0.00000000E+00  1.55916275E-01  6.07683719E-01  3.91957393E-01
  0.00000000E+00  0.00000000E+00  0.00000000E+00  1.55916275E-01  6.07683719E-01
  3.91957393E-01  0.00000000E+00  0.00000000E+00  0.00000000E+00  0.00000000E+00
  0.00000000E+00  0.00000000E+00  1.55916275E-01  6.07683719E-01  3.91957393E-01
  1.05876043E-02  5.95167005E-01  4.62001012E-01  0.00000000E+00  0.00000000E+00
  0.00000000E+00  1.55916275E-01  6.07683719E-01  3.91957393E-01  1.05876043E-02
  5.95167005E-01  4.62001012E-01  0.00000000E+00  0.00000000E+00  0.00000000E+00
  1.55916275E-01  6.07683719E-01  3.91957393E-01  0.00000000E+00  0.00000000E+00
  0.00000000E+00  0.00000000E+00  0.00000000E+00  0.00000000E+00  0.00000000E+00
  0.00000000E+00  0.00000000E+00
Coordinates of each shell                  R   N=          72
  9.77404935E-01 -2.49206798E+00  0.00000000E+00  9.77404935E-01 -2.49206798E+00
  0.00000000E+00  1.91257244E+00 -4.00185832E-02  0.00000000E+00  1.91257244E+00
 -4.00185832E-02  0.00000000E+00 -1.11022302E-16  1.72869549E+00  0.00000000E+00
 -1.11022302E-16  1.72869549E+00  0.00000000E+00 -2.63437998E+00  1.18439057E+00
  0.00000000E+00 -2.63437998E+00  1.18439057E+00  0.00000000E+00 -3.23951536E+00
 -1.42073930E+00  0.00000000E+00 -3.23951536E+00 -1.42073930E+00  0.00000000E+00
 -1.48303955E+00 -3.37998460E+00  0.00000000E+00 -1.48303955E+00 -3.37998460E+00
  0.00000000E+00 -5.23779742E+00 -2.02084625E+00  0.00000000E+00  3.38345263E+00
 -4.91879059E+00  0.00000000E+00  3.38345263E+00 -4.91879059E+00  0.00000000E+00
  3.38345263E+00 -4.91879059E+00  0.00000000E+00  1.03175216E+00  4.98621395E+00
  0.00000000E+00  1.03175216E+00  4.98621395E+00  0.00000000E+00  1.03175216E+00
  4.98621395E+00  0.00000000E+00 -4.66175386E+00  3.24943936E+00  0.00000000E+00
 -4.66175386E+00  3.24943936E+00  0.00000000E+00 -4.46079390E+00  4.46100705E+00
  1.68428626E+00 -4.46079390E+00  4.46100705E+00 -1.68428626E+00 -6.55636087E+00
  2.39434843E+00  0.00000000E+00
Constraint Structure                       R   N=          39
  9.77404935E-01 -2.49206798E+00  0.00000000E+00  1.91257244E+00 -4.00185832E-02
  0.00000000E+00 -1.11022302E-16  1.72869549E+00  0.00000000E+00 -2.63437998E+00
  1.18439057E+00  0.00000000E+00 -3.23951536E+00 -1.42073930E+00  0.00000000E+00
 -1.48303955E+00 -3.37998460E+00  0.00000000E+00 -5.23779742E+00 -2.02084625E+00
  0.00000000E+00  3.38345263E+00 -4.91879059E+00  0.00000000E+00  1.03175216E+00
  4.98621395E+00  0.00000000E+00 -4.66175386E+00  3.24943936E+00  0.00000000E+00
 -4.46079390E+00  4.46100705E+00  1.68428626E+00 -4.46079390E+00  4.46100705E+00
 -1.68428626E+00 -6.55636087E+00  2.39434843E+00  0.00000000E+00
Num ILSW                                   I              100
ILSW                                       I   N=         100
           0           0           0           0           2           0
           0           0           0           0         402          -1
           0           0           0           0           2           0
           0           0           1           0           1           0
           1           0           0           0           0           0
           0           0      100000           0          -1           0
           0           0           0           0           0           0
           0           0           0           1           0           0
           0           0           1           0           0           0
           0           0           4          41           0           0
           0           0           5           0           0           0
           0           0           0           0           0           0
           0           0           0           0           0           0
           0           0           0           0           0           0
           0           0           0           0           0           0
           0           0           0           0           0           0
           0           0           0           0
Num RLSW                                   I               41
RLSW                                       R   N=          41
  8.00000000E-01  7.20000000E-01  1.00000000E+00  8.10000000E-01  2.00000000E-01
  0.00000000E+00  0.00000000E+00  1.00000000E+00  0.00000000E+00  0.00000000E+00
  0.00000000E+00  0.00000000E+00  1.00000000E+00  0.00000000E+00  0.00000000E+00
  0.00000000E+00  0.00000000E+00  1.00000000E+00  0.00000000E+00  0.00000000E+00
  0.00000000E+00  0.00000000E+00  1.00000000E+00  0.00000000E+00  0.00000000E+00
  0.00000000E+00  0.00000000E+00  1.00000000E+00  0.00000000E+00  0.00000000E+00
  0.00000000E+00  0.00000000E+00  1.00000000E+00  0.00000000E+00  0.00000000E+00
  0.00000000E+00  0.00000000E+00  0.00000000E+00  1.00000000E+00  1.00000000E+00
  0.00000000E+00
MxBond                                     I                4
NBond                                      I   N=          13
           3           2           3           3           3           2
           1           1           1           4           1           1
           1
IBond                                      I   N=          52
           2           6           8           0           1           3
           0           0           2           4           9           0
           3           5          10           0           4           6
           7           0           1           5           0           0
           5           0           0           0           1           0
           0           0           3           0           0           0
           4          11          12          13          10           0
           0           0          10           0           0           0
          10           0           0           0
RBond                                      R   N=          52
  2.00000000E+00  2.00000000E+00  1.00000000E+00  0.00000000E+00  2.00000000E+00
  2.00000000E+00  0.00000000E+00  0.00000000E+00  2.00000000E+00  1.50000000E+00
  1.00000000E+00  0.00000000E+00  1.50000000E+00  1.50000000E+00  1.00000000E+00
  0.00000000E+00  1.50000000E+00  2.00000000E+00  1.00000000E+00  0.00000000E+00
  2.00000000E+00  2.00000000E+00  0.00000000E+00  0.00000000E+00  1.00000000E+00
  0.00000000E+00  0.00000000E+00  0.00000000E+00  1.00000000E+00  0.00000000E+00
  0.00000000E+00  0.00000000E+00  1.00000000E+00  0.00000000E+00  0.00000000E+00
  0.00000000E+00  1.00000000E+00  1.00000000E+00  1.00000000E+00  1.00000000E+00
  1.00000000E+00  0.00000000E+00  0.00000000E+00  0.00000000E+00  1.00000000E+00
  0.00000000E+00  0.00000000E+00  0.00000000E+00  1.00000000E+00  0.00000000E+00
  0.00000000E+00  0.00000000E+00
Virial Ratio                               R      2.019655006294447E+00
SCF Energy                                 R     -1.208994229562009E+03
Total Energy                               R     -1.208994229562009E+03
RMS Force                                  R      1.658036750824293E-04
RMS Density                                R      5.967979019568680E-09
External E-field                           R   N=          35
  0.00000000E+00  0.00000000E+00  0.00000000E+00  0.00000000E+00  0.00000000E+00
  0.00000000E+00  0.00000000E+00  0.00000000E+00  0.00000000E+00  0.00000000E+00
  0.00000000E+00  0.00000000E+00  0.00000000E+00  0.00000000E+00  0.00000000E+00
  0.00000000E+00  0.00000000E+00  0.00000000E+00  0.00000000E+00  0.00000000E+00
  0.00000000E+00  0.00000000E+00  0.00000000E+00  0.00000000E+00  0.00000000E+00
  0.00000000E+00  0.00000000E+00  0.00000000E+00  0.00000000E+00  0.00000000E+00
  0.00000000E+00  0.00000000E+00  0.00000000E+00  0.00000000E+00  0.00000000E+00
IOpCl                                      I                0
IROHF                                      I                0
Alpha Orbital Energies                     R   N=          57
 -1.00491031E+02 -1.00482989E+02 -1.42103088E+01 -1.42002104E+01 -1.01616052E+01
 -1.01483311E+01 -1.01034524E+01 -1.00897508E+01 -1.00624260E+01 -9.28620547E+00
 -9.27753593E+00 -7.06645601E+00 -7.05796872E+00 -7.05115465E+00 -7.05013167E+00
 -7.04247485E+00 -7.04138084E+00 -9.82289093E-01 -8.92007071E-01 -8.34874974E-01
 -7.83468254E-01 -7.69087217E-01 -6.85608158E-01 -6.33455048E-01 -5.93348784E-01
 -5.08931493E-01 -4.77717749E-01 -4.34531609E-01 -4.18960867E-01 -4.03655910E-01
 -3.97786428E-01 -3.91135069E-01 -3.76265408E-01 -3.25626823E-01 -2.92804079E-01
 -2.78509648E-01 -2.70627078E-01 -2.60910084E-01 -2.56510587E-01 -2.29785754E-01
 -2.18585637E-01 -3.52828311E-03  9.01407012E-03  8.06183642E-02  1.17088595E-01
  1.49918938E-01  3.00802225E-01  3.24898914E-01  3.40044804E-01  3.63151047E-01
  4.15663408E-01  4.21409061E-01  4.32432541E-01  4.80424269E-01  5.02633777E-01
  5.83507908E-01  6.41830356E-01
Alpha MO coefficients                      R   N=        3249
 -1.45092838E-06  9.41052831E-06 -7.63758734E-06  8.74702400E-06  0.00000000E+00
  5.92397763E-07 -1.84436553E-05  4.14237616E-06 -1.40163782E-05  0.00000000E+00
 -5.81264398E-05  3.92099721E-04  1.18309132E-04  3.50387298E-04  0.00000000E+00
  1.51520793E-07 -1.35326672E-05  3.66692475E-06 -1.68604710E-05  0.00000000E+00
 -1.02641026E-06  5.00886170E-06  7.32103284E-06  1.79173665E-06  0.00000000E+00
  2.53966176E-07 -4.02693622E-06 -6.92538464E-07 -1.14752916E-06  0.00000000E+00
  1.54989518E-06 -1.03600991E-05 -2.25573220E-07  1.69313486E-07 -1.11123972E-07
  0.00000000E+00  1.23551399E-06 -1.02942176E-06  7.43763903E-07  0.00000000E+00
  9.94362714E-01  1.61455845E-02 -3.38132272E-05 -1.01091242E-04  0.00000000E+00
 -1.99035572E-03  7.18721464E-05  2.23056123E-04  0.00000000E+00 -5.64313671E-07
 -7.56250808E-06  2.59215286E-05 -1.99597204E-06  0.00000000E+00  2.27541818E-05
  2.27541818E-05  9.24860385E-06 -5.90224817E-05  3.98201704E-04  2.58067970E-04
 -2.60402161E-04  0.00000000E+00  4.81367789E-07 -1.83019442E-05 -2.69253928E-07
  1.30609932E-05  0.00000000E+00 -1.36280295E-06  9.04749360E-06 -1.68494593E-06
 -1.11511323E-05  0.00000000E+00 -1.07009806E-07 -3.01954533E-06  8.10297581E-07
 -8.19478063E-07  0.00000000E+00 -1.26960638E-06  7.94616626E-06  1.12072682E-05
  1.82489232E-06  0.00000000E+00  5.24187014E-07 -1.79127939E-05 -1.35293116E-05
  1.82802654E-06  0.00000000E+00  2.41850651E-06  9.94363051E-01  1.61446068E-02
 -7.51622446E-05  7.58109365E-05  0.00000000E+00 -1.98935119E-03  1.64769457E-04
 -1.66192857E-04  0.00000000E+00  1.04268002E-05  1.09965097E-07  1.10605272E-07
  1.68978809E-07  0.00000000E+00  1.17379879E-06 -6.36116536E-07 -1.09110288E-06
  0.00000000E+00 -1.03107034E-07  9.42391261E-07  5.15238561E-07 -5.05261724E-07
  0.00000000E+00 -3.80900951E-08 -3.80900951E-08 -2.11975882E-08  6.18653856E-04
 -7.66415822E-03 -2.10823467E-03 -6.19579846E-03  0.00000000E+00  9.92623331E-01
  3.47493265E-02 -6.60626483E-03 -1.41383322E-03  0.00000000E+00  6.26701504E-04
 -7.92666760E-03 -4.66720746E-03  4.71009074E-03  0.00000000E+00 -2.54022137E-05
  3.47431781E-04  3.30751621E-04 -5.02107979E-04  0.00000000E+00 -1.56227601E-06
 -1.63768069E-04  6.04272258E-05  1.80439433E-05  0.00000000E+00  4.22271538E-03
  3.19663793E-04 -7.52185756E-05  5.49596026E-04  0.00000000E+00  4.55771081E-05
  8.11848458E-07  6.53253210E-06 -1.36680663E-06 -1.87261288E-05  0.00000000E+00
  1.47464967E-04 -1.28171069E-05  2.16821208E-04  0.00000000E+00  1.06040273E-06
  5.34856764E-06 -1.07135681E-05  1.70354907E-05  0.00000000E+00  1.51184667E-04
  9.30068368E-05 -2.03574824E-04  0.00000000E+00  4.50238880E-07  5.15344605E-05
 -3.07779722E-05 -6.27405800E-05  0.00000000E+00 -8.91024856E-06 -8.91024856E-06
 -2.48464825E-05  6.17526302E-04 -7.70690978E-03  6.31418940E-03  2.07164735E-03
  0.00000000E+00 -4.27987276E-03  2.64536138E-05 -4.90696938E-04  9.71640247E-05
  0.00000000E+00 -7.43835241E-06 -8.75027413E-05  2.11447868E-05 -8.79864921E-05
  0.00000000E+00 -2.48167274E-05  3.50121201E-04  4.91430798E-04 -3.42082641E-04
  0.00000000E+00  6.21521958E-04 -7.67273582E-03 -4.55050280E-03  4.60051278E-03
  0.00000000E+00  9.92636099E-01  3.46009294E-02  1.77769784E-03  6.45112747E-03
  0.00000000E+00  1.64272375E-04  9.19079127E-07  5.80763917E-06  1.97249098E-05
  2.09246901E-06  0.00000000E+00  1.46352285E-04 -2.21450681E-04  7.98783934E-06
  0.00000000E+00  3.65944627E-07 -3.42504868E-07  1.00963470E-06  2.39070417E-06
  0.00000000E+00  2.12397706E-05 -7.82454284E-06 -1.89806994E-05  0.00000000E+00
 -7.65663570E-07  6.48334965E-05  4.26145296E-05  1.93596652E-05  0.00000000E+00
 -9.52207090E-06 -9.52207090E-06 -5.76523408E-05  9.91095363E-01  3.85635990E-02
 -5.65710287E-04  6.28078578E-04  0.00000000E+00  6.98063074E-04 -7.12772854E-03
  1.51072809E-03  4.54011947E-03  0.00000000E+00 -1.05613358E-02 -9.79817682E-04
  1.68382604E-04  8.66836601E-04  0.00000000E+00 -4.72060395E-04  2.51939786E-04
 -9.86445212E-05  1.61970736E-04  0.00000000E+00 -2.21429760E-03 -5.66372853E-04
 -8.77621515E-04 -1.62502395E-04  0.00000000E+00  6.97746005E-04 -7.22482127E-03
 -4.50697936E-03 -1.46138023E-03  0.00000000E+00 -2.37204613E-04  1.91132026E-04
 -5.94196399E-04 -4.24310882E-04  4.27786291E-04  0.00000000E+00 -5.22904451E-03
  3.81729215E-03 -3.84910530E-03  0.00000000E+00  2.98876558E-06 -1.01529304E-05
 -1.71450976E-06 -8.96170573E-06  0.00000000E+00 -8.39525832E-05  1.67160759E-05
  7.92388221E-05  0.00000000E+00 -6.88499789E-05 -1.05673672E-04 -5.25270053E-05
  5.16560156E-05  0.00000000E+00  5.83259834E-06  5.83259834E-06  6.55778782E-06
  1.08860396E-02 -1.88121626E-04  5.88163960E-04 -6.15692213E-04  0.00000000E+00
  7.25257465E-04 -7.64283057E-03  3.51644869E-03 -3.38743856E-03  0.00000000E+00
  9.90909739E-01  4.01504559E-02 -6.80394790E-04 -1.46630595E-03  0.00000000E+00
 -5.80395021E-03 -8.96958453E-03 -5.88827711E-03 -1.04644500E-03  0.00000000E+00
 -1.17663945E-03  1.54408391E-04 -2.67072226E-04  1.49067230E-04  0.00000000E+00
 -8.64177733E-06  1.78188850E-04  2.37721002E-05  2.76779889E-05  0.00000000E+00
 -1.52348412E-04  6.91282680E-06 -2.23325048E-05 -1.34799918E-05  1.62333311E-05
  0.00000000E+00 -1.88449538E-04  1.22420515E-04 -1.44200123E-04  0.00000000E+00
  1.99183659E-04 -6.16589994E-04 -1.74501682E-04 -5.70120583E-04  0.00000000E+00
 -5.19052077E-03  1.58844702E-03  5.15003864E-03  0.00000000E+00 -9.15207171E-06
  2.84588983E-04  9.53435665E-05 -1.25599551E-05  0.00000000E+00 -8.10876220E-05
 -8.10876220E-05 -8.67865241E-05  2.52558858E-03 -4.80981233E-04  5.82244838E-04
 -5.59376225E-04  0.00000000E+00 -1.20837514E-05  2.05811124E-04 -3.01661433E-05
 -5.73576511E-05  0.00000000E+00  1.07801999E-03  3.99690235E-04 -2.79117737E-04
  2.12293409E-04  0.00000000E+00 -2.62127488E-02 -1.01321172E-02  1.22942962E-03
  6.02039205E-03  0.00000000E+00  9.90433797E-01  4.22862620E-02  6.60041234E-04
  8.25483929E-04  0.00000000E+00  7.38920065E-04 -7.44771221E-03  3.39228800E-03
 -3.61319410E-03  0.00000000E+00 -8.90693956E-03  5.72209510E-06 -1.82528749E-05
 -1.22202440E-05  9.35160669E-06  0.00000000E+00 -1.39147059E-04  1.08661506E-04
 -8.60450075E-05  0.00000000E+00  4.98528507E-06 -1.50431689E-05 -8.94220212E-06
 -8.99873329E-06  0.00000000E+00 -1.07569781E-04  7.71269471E-05  8.53645086E-05
  0.00000000E+00  1.89733638E-04  4.50268373E-04  7.06421007E-05 -2.50406093E-04
  0.00000000E+00 -1.96049685E-05 -1.96049685E-05 -1.33273344E-04  6.81177694E-04
 -2.53857655E-04  2.02351395E-04 -2.07979688E-04  0.00000000E+00 -3.31709477E-05
  3.63099021E-04 -3.30867827E-04 -1.32349809E-04  0.00000000E+00  7.25867782E-03
 -8.95382820E-03  6.15930378E-03  1.38825011E-03  0.00000000E+00  9.90083571E-01
  4.32828162E-02  1.43948740E-03 -1.31795158E-03  0.00000000E+00  2.76274731E-02
 -8.15677996E-03 -1.53946312E-03 -6.09611423E-03  0.00000000E+00 -1.64468832E-05
  2.10986701E-04  1.87755337E-04  2.44252123E-04  0.00000000E+00 -1.19223180E-04
  1.42496153E-06 -4.68138634E-06 -3.02071454E-06  2.98775572E-06  0.00000000E+00
 -3.57303597E-05  2.63259313E-05 -2.60176213E-05  0.00000000E+00  7.33539387E-06
 -8.91768287E-06 -1.55922844E-06  1.46346914E-06  0.00000000E+00  8.04130663E-05
 -4.60166398E-05 -7.19169380E-05  0.00000000E+00 -1.70037738E-02 -7.77413310E-03
 -3.84730881E-03  4.01132256E-03  0.00000000E+00  4.31426999E-05  4.31426999E-05
  2.24370149E-04  1.01151332E-04 -4.59171999E-05  5.06071908E-05 -5.14304942E-05
  0.00000000E+00  3.64771155E-06  5.17011057E-06  1.39267963E-05 -2.41917181E-06
  0.00000000E+00  1.38898071E-04  1.90378065E-05  2.00614327E-05  2.34195256E-04
  0.00000000E+00  1.84796941E-02 -6.70622815E-03  4.22368419E-03 -4.26942776E-03
  0.00000000E+00  2.92504479E-04  3.00335531E-05 -2.55278617E-04  2.48426060E-05
  0.00000000E+00  2.00539099E-06  1.79847370E-05 -5.11494730E-06 -7.32152444E-06
  0.00000000E+00 -2.03176865E-05  3.96930999E-07 -1.35091490E-06 -7.46766313E-07
  7.67811243E-07  0.00000000E+00 -9.99499775E-06  6.96401970E-06 -7.11833301E-06
  0.00000000E+00  8.35842644E-06 -2.08196974E-05 -1.58597063E-05 -1.03936017E-05
  0.00000000E+00 -6.56346731E-05  1.09676051E-04  8.54523164E-05  0.00000000E+00
  9.90168234E-01  4.56397531E-02 -3.34564593E-05  8.47741140E-05  0.00000000E+00
 -9.12060735E-03 -9.12060735E-03 -9.15639491E-03  5.70730539E-05 -2.10517389E-04
  1.31965886E-04 -1.91313567E-04  0.00000000E+00  4.35624163E-06  3.69613395E-04
 -1.53208904E-04  1.63677477E-04  0.00000000E+00  2.33306696E-03 -8.92496935E-03
 -2.53925607E-03 -7.56125589E-03  0.00000000E+00  3.78824924E-05  2.87545995E-04
 -7.23162800E-05  2.02749810E-04  0.00000000E+00  4.81362717E-05 -1.42970617E-04
 -1.43778942E-04 -6.73018842E-05  0.00000000E+00 -4.12908381E-06  6.84013170E-05
  1.02420099E-05  1.71267255E-05  0.00000000E+00 -2.57381181E-05  1.07021412E-04
 -2.99363006E-04  4.88375948E-07 -1.14425940E-06  0.00000000E+00 -3.51310603E-05
  1.90842750E-05 -1.22815153E-05  0.00000000E+00 -3.76689125E-01  1.05127121E+00
 -3.83093040E-03 -1.07021686E-02  0.00000000E+00  5.24058327E-02 -1.86316615E-03
 -5.59829975E-03  0.00000000E+00  5.72638176E-05  1.76556135E-04 -5.92503201E-04
  2.20892633E-06  0.00000000E+00 -5.32261525E-04 -5.32261525E-04 -2.03129323E-04
  2.33541166E-03 -9.04060530E-03 -5.57386794E-03  5.62662918E-03  0.00000000E+00
  8.41829827E-06  3.60206057E-04 -1.09849311E-04 -1.82830133E-04  0.00000000E+00
  5.46950293E-05 -2.08428536E-04  8.27462052E-06  2.23063970E-04  0.00000000E+00
  9.97295430E-06  4.66861875E-05 -1.92543880E-05  1.92707354E-05  0.00000000E+00
  5.35582725E-05 -1.86242479E-04 -2.23834790E-04 -1.14899448E-05  0.00000000E+00
  6.44224768E-06  3.56180613E-04  1.97847376E-04  7.82187574E-05  0.00000000E+00
 -3.85692872E-05 -3.76692258E-01  1.05128373E+00 -8.02045729E-03  8.08468923E-03
  0.00000000E+00  5.23583658E-02 -4.14625056E-03  4.18087075E-03  0.00000000E+00
 -1.08157269E-04  3.01202161E-04 -2.25181325E-06 -4.83705832E-06  0.00000000E+00
 -4.71194983E-06  1.12984825E-05  1.56905361E-05  0.00000000E+00  3.55111684E-06
 -1.67732419E-05 -9.40432567E-06  8.89504134E-06  0.00000000E+00  3.77635934E-07
  3.77635934E-07 -2.26991995E-07 -3.99775301E-05  2.16004190E-04 -1.61685089E-04
  1.97444615E-04  0.00000000E+00  1.56785715E-06 -4.53081303E-04  1.13150597E-04
 -2.92049536E-04  0.00000000E+00 -1.70981587E-03  1.17541701E-02  3.19730648E-03
  9.60936884E-03  0.00000000E+00 -1.72038304E-05 -3.28756711E-04  3.07217407E-05
 -3.52670953E-04  0.00000000E+00 -2.97993927E-05  1.22311233E-04  1.66796634E-04
  4.19217246E-05  0.00000000E+00  3.97784836E-06 -7.77964442E-05 -9.67249863E-06
 -1.49189541E-05  0.00000000E+00  3.30002388E-05  2.83140999E-06 -7.16010798E-06
 -2.61671518E-04  2.13431368E-04  0.00000000E+00  2.52812727E-05 -3.32497309E-05
  2.51004426E-05  0.00000000E+00 -4.99774346E-03  1.41409542E-02  2.94120497E-01
  9.42087282E-01  0.00000000E+00 -5.32652518E-03  1.56681415E-02  5.00597799E-02
  0.00000000E+00 -5.45668000E-05  1.37116231E-04  4.18010932E-04  3.03729436E-05
  0.00000000E+00  1.44025934E-04  1.44025934E-04  1.12315577E-04  1.72709024E-03
 -1.18622308E-02 -7.09474168E-03  7.14654963E-03  0.00000000E+00  1.25928994E-06
  4.47720642E-04 -1.57664719E-05 -2.86053789E-04  0.00000000E+00  3.80691475E-05
 -2.11055373E-04  2.90790921E-05  2.37208491E-04  0.00000000E+00  7.63433374E-06
  4.78486428E-05 -2.90884975E-05  2.96197296E-05  0.00000000E+00  3.58546523E-05
 -1.85780834E-04 -2.40304390E-04 -3.25329183E-05  0.00000000E+00 -5.80057066E-09
  4.37091171E-04  2.94935721E-04 -2.13122298E-05  0.00000000E+00 -4.46545198E-05