 Entering Link 1 = C:\G09W\l1.exe PID=     10596.
  
 Copyright (c) 1988,1990,1992,1993,1995,1998,2003,2009,2013,
            Gaussian, Inc.  All Rights Reserved.
  
 This is part of the Gaussian(R) 09 program.  It is based on
 the Gaussian(R) 03 system (copyright 2003, Gaussian, Inc.),
 the Gaussian(R) 98 system (copyright 1998, Gaussian, Inc.),
 the Gaussian(R) 94 system (copyright 1995, Gaussian, Inc.),
 the Gaussian 92(TM) system (copyright 1992, Gaussian, Inc.),
 the Gaussian 90(TM) system (copyright 1990, Gaussian, Inc.),
 the Gaussian 88(TM) system (copyright 1988, Gaussian, Inc.),
 the Gaussian 86(TM) system (copyright 1986, Carnegie Mellon
 University), and the Gaussian 82(TM) system (copyright 1983,
 Carnegie Mellon University). Gaussian is a federally registered
 trademark of Gaussian, Inc.
  
 This software contains proprietary and confidential information,
 including trade secrets, belonging to Gaussian, Inc.
  
 This software is provided under written license and may be
 used, copied, transmitted, or stored only in accord with that
 written license.
  
 The following legend is applicable only to US Government
 contracts under FAR:
  
                    RESTRICTED RIGHTS LEGEND
  
 Use, reproduction and disclosure by the US Government is
 subject to restrictions as set forth in subparagraphs (a)
 and (c) of the Commercial Computer Software - Restricted
 Rights clause in FAR 52.227-19.
  
 Gaussian, Inc.
 340 Quinnipiac St., Bldg. 40, Wallingford CT 06492
  
  
 ---------------------------------------------------------------
 Warning -- This program may not be used in any manner that
 competes with the business of Gaussian, Inc. or will provide
 assistance to any competitor of Gaussian, Inc.  The licensee
 of this program is prohibited from giving any competitor of
 Gaussian, Inc. access to this program.  By using this program,
 the user acknowledges that Gaussian, Inc. is engaged in the
 business of creating and licensing software in the field of
 computational chemistry and represents and warrants to the
 licensee that it is not a competitor of Gaussian, Inc. and that
 it will not use this program in any manner prohibited above.
 ---------------------------------------------------------------
  

 Cite this work as:
 Gaussian 09, Revision D.01,
 M. J. Frisch, G. W. Trucks, H. B. Schlegel, G. E. Scuseria, 
 M. A. Robb, J. R. Cheeseman, G. Scalmani, V. Barone, B. Mennucci, 
 G. A. Petersson, H. Nakatsuji, M. Caricato, X. Li, H. P. Hratchian, 
 A. F. Izmaylov, J. Bloino, G. Zheng, J. L. Sonnenberg, M. Hada, 
 M. Ehara, K. Toyota, R. Fukuda, J. Hasegawa, M. Ishida, T. Nakajima, 
 Y. Honda, O. Kitao, H. Nakai, T. Vreven, J. A. Montgomery, Jr., 
 J. E. Peralta, F. Ogliaro, M. Bearpark, J. J. Heyd, E. Brothers, 
 K. N. Kudin, V. N. Staroverov, T. Keith, R. Kobayashi, J. Normand, 
 K. Raghavachari, A. Rendell, J. C. Burant, S. S. Iyengar, J. Tomasi, 
 M. Cossi, N. Rega, J. M. Millam, M. Klene, J. E. Knox, J. B. Cross, 
 V. Bakken, C. Adamo, J. Jaramillo, R. Gomperts, R. E. Stratmann, 
 O. Yazyev, A. J. Austin, R. Cammi, C. Pomelli, J. W. Ochterski, 
 R. L. Martin, K. Morokuma, V. G. Zakrzewski, G. A. Voth, 
 P. Salvador, J. J. Dannenberg, S. Dapprich, A. D. Daniels, 
 O. Farkas, J. B. Foresman, J. V. Ortiz, J. Cioslowski, 
 and D. J. Fox, Gaussian, Inc., Wallingford CT, 2013.
 
 ******************************************
 Gaussian 09:  IA32W-G09RevD.01 24-Apr-2013
                15-Mar-2022 
 ******************************************
 %nprocshared=4
 Will use up to    4 processors via shared memory.
 %mem=1GB
 %chk=D:\mindmap\gaussian\calculate\opt_freq\QM1\QM1.chk
 -----------------------------------------
 # opt freq pm6 pop=full geom=connectivity
 -----------------------------------------
 1/14=-1,18=20,19=15,26=1,38=1,57=2/1,3;
 2/9=110,12=2,17=6,18=5,40=1/2;
 3/5=2,16=1,25=1,41=3900000,71=1/1,2,3;
 4/35=1/1;
 5/5=2,35=1,38=5/2;
 6/7=3,28=1/1;
 7//1,2,3,16;
 1/14=-1,18=20,19=15,26=1/3(2);
 2/9=110/2;
 99//99;
 2/9=110/2;
 3/5=2,16=1,25=1,41=3900000,71=1,135=20/1,2,3;
 4/5=5,16=3,35=1/1;
 5/5=2,35=1,38=5/2;
 7//1,2,3,16;
 1/14=-1,18=20,19=15,26=1/3(-5);
 2/9=110/2;
 6/7=3,19=2,28=1/1;
 99/9=1/99;
 ----------------------
 Energy Calculation(GC)
 ----------------------
 Symbolic Z-matrix:
 Charge =  0 Multiplicity = 1
 C                    -2.02279  -1.01177   0. 
 N                    -0.66168  -1.01177   0. 
 C                    -0.0738    0.20295   0. 
 C                    -0.81703   1.39923  0. 
 C                    -2.22      1.2763   -0.00002 
 N                    -2.83928   0.07729   0.00003 
 H                    -2.87522   2.16563  -0.00002 
 Cl                   -2.81001  -2.58591  -0.00004 
 Cl                    1.68614   0.21764  -0.00004 
 C                    -0.12816   2.77656   0.00001 
 H                     0.48252   2.86992   0.87365 
 H                     0.4825    2.86994  -0.87365 
 H                    -0.87087   3.54682   0.00002 
 

 GradGradGradGradGradGradGradGradGradGradGradGradGradGradGradGradGradGrad
 Berny optimization.
 Initialization pass.
                           ----------------------------
                           !    Initial Parameters    !
                           ! (Angstroms and Degrees)  !
 --------------------------                            --------------------------
 ! Name  Definition              Value          Derivative Info.                !
 --------------------------------------------------------------------------------
 ! R1    R(1,2)                  1.3611         estimate D2E/DX2                !
 ! R2    R(1,6)                  1.3611         estimate D2E/DX2                !
 ! R3    R(1,8)                  1.76           estimate D2E/DX2                !
 ! R4    R(2,3)                  1.3495         estimate D2E/DX2                !
 ! R5    R(3,4)                  1.4084         estimate D2E/DX2                !
 ! R6    R(3,9)                  1.76           estimate D2E/DX2                !
 ! R7    R(4,5)                  1.4083         estimate D2E/DX2                !
 ! R8    R(4,10)                 1.54           estimate D2E/DX2                !
 ! R9    R(5,6)                  1.3495         estimate D2E/DX2                !
 ! R10   R(5,7)                  1.1046         estimate D2E/DX2                !
 ! R11   R(10,11)                1.07           estimate D2E/DX2                !
 ! R12   R(10,12)                1.07           estimate D2E/DX2                !
 ! R13   R(10,13)                1.07           estimate D2E/DX2                !
 ! A1    A(2,1,6)              126.8598         estimate D2E/DX2                !
 ! A2    A(2,1,8)              116.5695         estimate D2E/DX2                !
 ! A3    A(6,1,8)              116.5707         estimate D2E/DX2                !
 ! A4    A(1,2,3)              115.8253         estimate D2E/DX2                !
 ! A5    A(2,3,4)              122.3225         estimate D2E/DX2                !
 ! A6    A(2,3,9)              116.3034         estimate D2E/DX2                !
 ! A7    A(4,3,9)              121.3741         estimate D2E/DX2                !
 ! A8    A(3,4,5)              116.8447         estimate D2E/DX2                !
 ! A9    A(3,4,10)             121.576          estimate D2E/DX2                !
 ! A10   A(5,4,10)             121.5794         estimate D2E/DX2                !
 ! A11   A(4,5,6)              122.3238         estimate D2E/DX2                !
 ! A12   A(4,5,7)              121.374          estimate D2E/DX2                !
 ! A13   A(6,5,7)              116.3023         estimate D2E/DX2                !
 ! A14   A(1,6,5)              115.824          estimate D2E/DX2                !
 ! A15   A(4,10,11)            109.4712         estimate D2E/DX2                !
 ! A16   A(4,10,12)            109.4712         estimate D2E/DX2                !
 ! A17   A(4,10,13)            109.4712         estimate D2E/DX2                !
 ! A18   A(11,10,12)           109.4713         estimate D2E/DX2                !
 ! A19   A(11,10,13)           109.4712         estimate D2E/DX2                !
 ! A20   A(12,10,13)           109.4712         estimate D2E/DX2                !
 ! D1    D(6,1,2,3)             -0.0017         estimate D2E/DX2                !
 ! D2    D(8,1,2,3)            179.9984         estimate D2E/DX2                !
 ! D3    D(2,1,6,5)              0.0044         estimate D2E/DX2                !
 ! D4    D(8,1,6,5)           -179.9957         estimate D2E/DX2                !
 ! D5    D(1,2,3,4)              0.0            estimate D2E/DX2                !
 ! D6    D(1,2,3,9)           -179.9987         estimate D2E/DX2                !
 ! D7    D(2,3,4,5)             -0.001          estimate D2E/DX2                !
 ! D8    D(2,3,4,10)           179.9997         estimate D2E/DX2                !
 ! D9    D(9,3,4,5)            179.9975         estimate D2E/DX2                !
 ! D10   D(9,3,4,10)            -0.0018         estimate D2E/DX2                !
 ! D11   D(3,4,5,6)              0.0039         estimate D2E/DX2                !
 ! D12   D(3,4,5,7)            179.9996         estimate D2E/DX2                !
 ! D13   D(10,4,5,6)          -179.9968         estimate D2E/DX2                !
 ! D14   D(10,4,5,7)            -0.0011         estimate D2E/DX2                !
 ! D15   D(3,4,10,11)          -59.999          estimate D2E/DX2                !
 ! D16   D(3,4,10,12)           60.001          estimate D2E/DX2                !
 ! D17   D(3,4,10,13)         -179.999          estimate D2E/DX2                !
 ! D18   D(5,4,10,11)          120.0017         estimate D2E/DX2                !
 ! D19   D(5,4,10,12)         -119.9982         estimate D2E/DX2                !
 ! D20   D(5,4,10,13)            0.0017         estimate D2E/DX2                !
 ! D21   D(4,5,6,1)             -0.0054         estimate D2E/DX2                !
 ! D22   D(7,5,6,1)            179.9987         estimate D2E/DX2                !
 --------------------------------------------------------------------------------
 Trust Radius=3.00D-01 FncErr=1.00D-07 GrdErr=1.00D-07
 Number of steps in this run=     65 maximum allowed number of steps=    100.
 GradGradGradGradGradGradGradGradGradGradGradGradGradGradGradGradGradGrad

                          Input orientation:                          
 ---------------------------------------------------------------------
 Center     Atomic      Atomic             Coordinates (Angstroms)
 Number     Number       Type             X           Y           Z
 ---------------------------------------------------------------------
      1          6           0       -2.022789   -1.011775    0.000000
      2          7           0       -0.661684   -1.011775    0.000000
      3          6           0       -0.073801    0.202952    0.000000
      4          6           0       -0.817033    1.399228   -0.000001
      5          6           0       -2.219996    1.276299   -0.000024
      6          7           0       -2.839284    0.077285    0.000033
      7          1           0       -2.875224    2.165630   -0.000020
      8         17           0       -2.810006   -2.585906   -0.000044
      9         17           0        1.686138    0.217639   -0.000037
     10          6           0       -0.128161    2.776564    0.000006
     11          1           0        0.482517    2.869919    0.873652
     12          1           0        0.482499    2.869937   -0.873651
     13          1           0       -0.870866    3.546816    0.000022
 ---------------------------------------------------------------------
                    Distance matrix (angstroms):
                    1          2          3          4          5
     1  C    0.000000
     2  N    1.361105   0.000000
     3  C    2.296544   1.349507   0.000000
     4  C    2.695697   2.416003   1.408357   0.000000
     5  C    2.296557   2.768324   2.399631   1.408338   0.000000
     6  N    1.361145   2.434747   2.768337   2.415995   1.349501
     7  H    3.289764   3.872423   3.420537   2.196252   1.104642
     8  Cl   1.760000   2.663302   3.906987   4.455697   3.907012
     9  Cl   3.907377   2.650231   1.760000   2.768035   4.047053
    10  C    4.235697   3.825724   2.574186   1.540000   2.574212
    11  H    4.701848   4.140050   2.861026   2.148263   3.256764
    12  H    4.701853   4.140062   2.861039   2.148263   3.256744
    13  H    4.701881   4.563388   3.437549   2.148263   2.641098
                    6          7          8          9         10
     6  N    0.000000
     7  H    2.088654   0.000000
     8  Cl   2.663352   4.751983   0.000000
     9  Cl   4.527598   4.959908   5.298602   0.000000
    10  C    3.825741   2.814178   5.995697   3.136842   0.000000
    11  H    4.426780   3.540304   6.431958   3.040826   1.070000
    12  H    4.426790   3.540280   6.431952   3.040828   1.070000
    13  H    3.989024   2.434158   6.431994   4.197820   1.070000
                   11         12         13
    11  H    0.000000
    12  H    1.747303   0.000000
    13  H    1.747303   1.747303   0.000000
 Stoichiometry    C5H4Cl2N2
 Framework group  C1[X(C5H4Cl2N2)]
 Deg. of freedom    33
 Full point group                 C1      NOp   1
 Largest Abelian subgroup         C1      NOp   1
 Largest concise Abelian subgroup C1      NOp   1
                         Standard orientation:                         
 ---------------------------------------------------------------------
 Center     Atomic      Atomic             Coordinates (Angstroms)
 Number     Number       Type             X           Y           Z
 ---------------------------------------------------------------------
      1          6           0       -1.410404    0.084567    0.000015
      2          7           0       -0.432644   -0.862319    0.000015
      3          6           0        0.834720   -0.398686    0.000015
      4          6           0        1.133033    0.977715    0.000014
      5          6           0        0.039686    1.865413   -0.000009
      6          7           0       -1.239308    1.434916    0.000048
      7          1           0        0.187683    2.960096   -0.000005
      8         17           0       -3.070990   -0.498574   -0.000029
      9         17           0        2.109202   -1.612480   -0.000021
     10          6           0        2.586067    1.487903    0.000021
     11          1           0        3.089696    1.130132    0.873667
     12          1           0        3.089695    1.130158   -0.873636
     13          1           0        2.588383    2.557901    0.000037
 ---------------------------------------------------------------------
 Rotational constants (GHZ):      2.1149101      0.7599641      0.5609794
 Standard basis: VSTO-6G (5D, 7F)
 There are    52 symmetry adapted cartesian basis functions of A   symmetry.
 There are    50 symmetry adapted basis functions of A   symmetry.
    50 basis functions,   312 primitive gaussians,    52 cartesian basis functions
    24 alpha electrons       24 beta electrons
       nuclear repulsion energy       244.0505851151 Hartrees.
 Integral buffers will be    262144 words long.
 Regular integral format.
 Two-electron integral symmetry is turned off.
 Do NDO integrals.
 One-electron integrals computed using PRISM.
 NBasis=    50 RedAO= F EigKep=  0.00D+00  NBF=    50
 NBsUse=    50 1.00D-04 EigRej=  0.00D+00 NBFU=    50
 Nonelectrostatic core Hamiltonian diagonalized for initial guess.
 Overlap will be assumed to be unity.
 Keep J ints in memory in canonical form, NReq=1893328.
 Requested convergence on RMS density matrix=1.00D-08 within 128 cycles.
 Requested convergence on MAX density matrix=1.00D-06.
 Requested convergence on             energy=1.00D-06.
 No special actions if energy rises.
 SCF Done:  E(RPM6) =  0.481693671688E-01 A.U. after   17 cycles
            NFock= 16  Conv=0.86D-08     -V/T= 1.0018

 **********************************************************************

            Population analysis using the SCF density.

 **********************************************************************

 Orbital symmetries:
       Occupied  (A) (A) (A) (A) (A) (A) (A) (A) (A) (A) (A) (A)
                 (A) (A) (A) (A) (A) (A) (A) (A) (A) (A) (A) (A)
       Virtual   (A) (A) (A) (A) (A) (A) (A) (A) (A) (A) (A) (A)
                 (A) (A) (A) (A) (A) (A) (A) (A) (A) (A) (A) (A)
                 (A) (A)
 The electronic state is 1-A.
 Alpha  occ. eigenvalues --   -1.27024  -1.13267  -1.06855  -0.99391  -0.97954
 Alpha  occ. eigenvalues --   -0.91803  -0.86797  -0.82771  -0.69508  -0.66112
 Alpha  occ. eigenvalues --   -0.60842  -0.57586  -0.56115  -0.55285  -0.55185
 Alpha  occ. eigenvalues --   -0.53134  -0.48512  -0.45953  -0.45011  -0.42835
 Alpha  occ. eigenvalues --   -0.41958  -0.41667  -0.39482  -0.38154
 Alpha virt. eigenvalues --   -0.04455  -0.04142  -0.01443  -0.00397   0.05006
 Alpha virt. eigenvalues --    0.07422   0.08251   0.09966   0.10259   0.12744
 Alpha virt. eigenvalues --    0.14833   0.16496   0.18032   0.18677   0.18806
 Alpha virt. eigenvalues --    0.22071   3.17206   3.17294   3.17968   3.18386
 Alpha virt. eigenvalues --    3.18452   3.18989   3.20426   3.20472   3.21104
 Alpha virt. eigenvalues --    3.21141
     Molecular Orbital Coefficients:
                           1         2         3         4         5
                           O         O         O         O         O
     Eigenvalues --    -1.27024  -1.13267  -1.06855  -0.99391  -0.97954
   1 1   C  1S          0.40110   0.02148  -0.29257   0.25361   0.12472
   2        1PX         0.17637  -0.09325   0.01138  -0.10390  -0.14531
   3        1PY         0.05546   0.28040   0.02046  -0.09968   0.08128
   4        1PZ         0.00000   0.00000   0.00000   0.00000   0.00000
   5 2   N  1S          0.46942  -0.51830  -0.16131   0.00930  -0.14404
   6        1PX         0.03188  -0.10107   0.14528  -0.19449   0.00387
   7        1PY         0.21388  -0.10587  -0.04986   0.04046  -0.04882
   8        1PZ         0.00000   0.00000   0.00000   0.00000   0.00000
   9 3   C  1S          0.29996  -0.31643   0.27952  -0.15371   0.10464
  10        1PX        -0.16275   0.14266   0.12347   0.02155   0.17127
  11        1PY         0.04909   0.07824   0.13444   0.11498  -0.09124
  12        1PZ         0.00000   0.00000   0.00000   0.00000   0.00000
  13 4   C  1S          0.20803   0.00890   0.50246   0.16319  -0.05795
  14        1PX        -0.12223  -0.04527   0.04039   0.14534   0.07241
  15        1PY        -0.04666   0.12578   0.00170   0.08439  -0.07606
  16        1PZ         0.00000   0.00000   0.00000   0.00000   0.00000
  17 5   C  1S          0.28039   0.31645   0.25742  -0.07090  -0.13707
  18        1PX        -0.08656  -0.15779   0.15410   0.13860  -0.04487
  19        1PY        -0.13415  -0.04382  -0.04768   0.00207   0.00169
  20        1PZ         0.00001   0.00001   0.00000   0.00000   0.00000
  21 6   N  1S          0.44208   0.54226  -0.11737  -0.11978   0.10685
  22        1PX         0.14816   0.14435   0.08288  -0.10774  -0.08674
  23        1PY        -0.14630  -0.04079   0.11919  -0.09524  -0.08830
  24        1PZ        -0.00001  -0.00001   0.00000   0.00000   0.00000
  25 7   H  1S          0.06012   0.10320   0.10425  -0.01416  -0.06113
  26 8   Cl 1S          0.04621   0.00650  -0.19122   0.55384   0.44602
  27        1PX         0.06074  -0.00469  -0.10571   0.15266   0.08901
  28        1PY         0.02077   0.02978  -0.03504   0.04470   0.05105
  29        1PZ         0.00000   0.00000   0.00000   0.00000   0.00000
  30        1D 0       -0.01469  -0.00071   0.00975  -0.00738  -0.00373
  31        1D+1        0.00000   0.00000   0.00000   0.00000   0.00000
  32        1D-1        0.00000   0.00000   0.00000   0.00000   0.00000
  33        1D+2        0.01781  -0.00897  -0.01179   0.01144   0.00094
  34        1D-2        0.01383   0.01297  -0.00839   0.00543   0.00853
  35 9   Cl 1S          0.03243  -0.11378   0.19626  -0.35964   0.76837
  36        1PX        -0.03693   0.07599  -0.05457   0.08033  -0.08590
  37        1PY         0.02701  -0.05095   0.09591  -0.04203   0.10238
  38        1PZ         0.00000   0.00000   0.00000   0.00000   0.00000
  39        1D 0       -0.01103   0.01089  -0.01199   0.00102  -0.00261
  40        1D+1        0.00000   0.00000   0.00000   0.00000   0.00000
  41        1D-1        0.00000   0.00000   0.00000   0.00000   0.00000
  42        1D+2        0.00452  -0.00907  -0.01371  -0.00981  -0.00253
  43        1D-2       -0.01664   0.01560  -0.01225   0.00907  -0.00462
  44 10  C  1S          0.02317   0.00718   0.40194   0.39691   0.01314
  45        1PX        -0.02490  -0.00676  -0.09501  -0.02217   0.01679
  46        1PY        -0.00837   0.01558  -0.03540   0.00148  -0.02211
  47        1PZ         0.00000   0.00000   0.00000   0.00000   0.00000
  48 11  H  1S          0.00914  -0.00101   0.17116   0.17588   0.01541
  49 12  H  1S          0.00914  -0.00101   0.17116   0.17588   0.01541
  50 13  H  1S          0.01014   0.01241   0.17270   0.18399  -0.00705
                           6         7         8         9        10
                           O         O         O         O         O
     Eigenvalues --    -0.91803  -0.86797  -0.82771  -0.69508  -0.66112
   1 1   C  1S         -0.21863   0.01280  -0.30247   0.03602   0.19787
   2        1PX        -0.07386  -0.09373  -0.01439  -0.14908  -0.31332
   3        1PY        -0.09179   0.28941   0.08965   0.33067  -0.11505
   4        1PZ        -0.00001   0.00001   0.00000   0.00001  -0.00002
   5 2   N  1S         -0.06307  -0.24148   0.14857   0.01827   0.03095
   6        1PX         0.12815   0.22405   0.35946   0.36161  -0.05668
   7        1PY        -0.04029   0.00242  -0.12159  -0.08407  -0.14836
   8        1PZ         0.00000   0.00000   0.00000   0.00000  -0.00001
   9 3   C  1S          0.15458   0.36760   0.13426  -0.04846   0.19280
  10        1PX        -0.02920   0.09132  -0.14879  -0.27292   0.25884
  11        1PY         0.07978   0.15060  -0.28795  -0.24986  -0.19379
  12        1PZ         0.00000   0.00000   0.00000   0.00000  -0.00001
  13 4   C  1S          0.17208   0.14084  -0.31554   0.02312  -0.02570
  14        1PX        -0.23925   0.04030   0.13504  -0.12415   0.14309
  15        1PY        -0.01979  -0.34373  -0.02176   0.37626  -0.02480
  16        1PZ         0.00000   0.00000   0.00000  -0.00001  -0.00001
  17 5   C  1S          0.30115  -0.36540  -0.02421   0.06870   0.15186
  18        1PX         0.07504  -0.01082  -0.29208   0.40028   0.01817
  19        1PY        -0.01468  -0.15840   0.13129   0.01617   0.37983
  20        1PZ         0.00000   0.00000   0.00001  -0.00001  -0.00001
  21 6   N  1S         -0.15722   0.12283   0.22826  -0.05137   0.03971
  22        1PX         0.12897  -0.18242   0.08888  -0.26558  -0.14772
  23        1PY         0.18361  -0.22461   0.20550  -0.30666   0.10571
  24        1PZ         0.00000   0.00000   0.00000   0.00000  -0.00001
  25 7   H  1S          0.12674  -0.24618   0.03748   0.07899   0.31580
  26 8   Cl 1S          0.57431  -0.00794   0.25936  -0.02546  -0.18338
  27        1PX        -0.02778  -0.01733  -0.14398   0.00317   0.35300
  28        1PY        -0.02077   0.05657  -0.03020   0.11717   0.12257
  29        1PZ         0.00000   0.00000   0.00000   0.00000   0.00001
  30        1D 0        0.00767   0.00020   0.00792  -0.00118  -0.00930
  31        1D+1        0.00000   0.00000   0.00000   0.00000   0.00000
  32        1D-1        0.00000   0.00000   0.00000   0.00000   0.00000
  33        1D+2       -0.00646  -0.00856  -0.01373  -0.00702   0.01027
  34        1D-2       -0.00892   0.01145  -0.00578   0.01186   0.00826
  35 9   Cl 1S         -0.14770  -0.34742  -0.18067   0.02740  -0.16923
  36        1PX        -0.02490  -0.08202  -0.11892  -0.05256  -0.26452
  37        1PY         0.00569   0.11503   0.03797  -0.12321   0.25945
  38        1PZ         0.00000   0.00000   0.00000   0.00000   0.00001
  39        1D 0       -0.00159  -0.00957  -0.00678   0.00137  -0.00795
  40        1D+1        0.00000   0.00000   0.00000   0.00000   0.00000
  41        1D-1        0.00000   0.00000   0.00000   0.00000   0.00000
  42        1D+2        0.00328  -0.00648   0.01151   0.01457   0.00040
  43        1D-2       -0.00969  -0.01735  -0.00471   0.00093  -0.01310
  44 10  C  1S         -0.37824  -0.08923   0.24261  -0.00844  -0.05522
  45        1PX        -0.08519  -0.02296   0.15906  -0.08392  -0.08531
  46        1PY        -0.01197  -0.09787   0.04354   0.17819  -0.04591
  47        1PZ         0.00000   0.00000   0.00000   0.00000   0.00000
  48 11  H  1S         -0.19291  -0.02859   0.14677  -0.06707  -0.04191
  49 12  H  1S         -0.19291  -0.02859   0.14677  -0.06706  -0.04190
  50 13  H  1S         -0.17774  -0.10156   0.13897   0.11044  -0.04687
                          11        12        13        14        15
                           O         O         O         O         O
     Eigenvalues --    -0.60842  -0.57586  -0.56115  -0.55285  -0.55185
   1 1   C  1S          0.00000   0.11967  -0.02296   0.08761   0.00006
   2        1PX         0.00000  -0.15847  -0.08095   0.43939   0.00033
   3        1PY        -0.00001  -0.04378   0.08189   0.18462   0.00014
   4        1PZ         0.39251   0.00001  -0.00001   0.00023  -0.30554
   5 2   N  1S          0.00001  -0.22173   0.00357  -0.14923  -0.00010
   6        1PX        -0.00001   0.07770   0.14940  -0.11443  -0.00008
   7        1PY        -0.00001   0.14023   0.12979   0.27876   0.00020
   8        1PZ         0.41791   0.00002   0.00000   0.00018  -0.24051
   9 3   C  1S          0.00000   0.13729  -0.01389   0.06273   0.00004
  10        1PX         0.00001  -0.08697  -0.28775   0.18051   0.00013
  11        1PY        -0.00001   0.12045   0.32969  -0.03386  -0.00003
  12        1PZ         0.37618   0.00003   0.00001   0.00003  -0.05384
  13 4   C  1S          0.00002  -0.22053   0.02879  -0.15134  -0.00010
  14        1PX         0.00003  -0.45809   0.15209   0.02195   0.00004
  15        1PY         0.00001  -0.20248  -0.20905  -0.05171  -0.00003
  16        1PZ         0.34166   0.00003   0.00000  -0.00012   0.16002
  17 5   C  1S         -0.00001   0.12853  -0.01590   0.06158   0.00004
  18        1PX         0.00001   0.00139  -0.01114   0.12053   0.00008
  19        1PY         0.00003  -0.02037   0.42805   0.34129   0.00024
  20        1PZ         0.30743   0.00001  -0.00002   0.00002  -0.05304
  21 6   N  1S          0.00002  -0.20475   0.08995  -0.13891  -0.00010
  22        1PX        -0.00001   0.08942  -0.24795  -0.02720  -0.00002
  23        1PY         0.00000  -0.03926   0.10164  -0.26664  -0.00019
  24        1PZ         0.37259   0.00000  -0.00001   0.00017  -0.23523
  25 7   H  1S          0.00001   0.06344   0.28774   0.29461   0.00021
  26 8   Cl 1S          0.00000  -0.07719  -0.00828   0.11210   0.00008
  27        1PX        -0.00001   0.24643  -0.00042  -0.41830  -0.00031
  28        1PY        -0.00001   0.09617   0.09062  -0.12268  -0.00009
  29        1PZ         0.14703   0.00001   0.00000   0.00011  -0.16121
  30        1D 0        0.00000  -0.00133  -0.00047   0.00341   0.00000
  31        1D+1        0.01384   0.00000   0.00000   0.00001  -0.00970
  32        1D-1        0.00469   0.00000   0.00000   0.00000  -0.00340
  33        1D+2        0.00000   0.00471  -0.00477  -0.00386   0.00000
  34        1D-2        0.00000   0.00499   0.00562  -0.00078   0.00000
  35 9   Cl 1S          0.00000   0.01028   0.12092  -0.05583  -0.00004
  36        1PX         0.00000   0.02947   0.39436  -0.11196  -0.00008
  37        1PY         0.00000  -0.02351  -0.28338   0.21803   0.00015
  38        1PZ         0.15584   0.00001  -0.00001   0.00000   0.00373
  39        1D 0        0.00000   0.00098   0.00270   0.00000   0.00000
  40        1D+1       -0.00953   0.00000   0.00000   0.00000   0.00376
  41        1D-1        0.01074   0.00000   0.00000   0.00000   0.00372
  42        1D+2        0.00000   0.00044  -0.00413  -0.00520   0.00000
  43        1D-2        0.00000  -0.00097   0.00787  -0.00437   0.00000
  44 10  C  1S         -0.00001   0.03120  -0.00705  -0.02313  -0.00002
  45        1PX        -0.00003   0.53954  -0.00786   0.08306   0.00003
  46        1PY        -0.00001   0.18225  -0.23108   0.03880   0.00003
  47        1PZ         0.28928   0.00005   0.00000  -0.00048   0.66690
  48 11  H  1S          0.15762   0.15133   0.04568   0.00748   0.38160
  49 12  H  1S         -0.15765   0.15128   0.04568   0.00803  -0.38162
  50 13  H  1S         -0.00001   0.14954  -0.15763   0.02719   0.00003
                          16        17        18        19        20
                           O         O         O         O         O
     Eigenvalues --    -0.53134  -0.48512  -0.45953  -0.45011  -0.42835
   1 1   C  1S         -0.01146   0.00001   0.15705   0.00001   0.01418
   2        1PX         0.00218   0.00000   0.01916  -0.00001  -0.05243
   3        1PY        -0.06354   0.00001  -0.01988   0.00000   0.05971
   4        1PZ         0.00000  -0.18229  -0.00001   0.24634   0.00000
   5 2   N  1S         -0.05601  -0.00001  -0.31721  -0.00001   0.05553
   6        1PX        -0.02627   0.00001   0.22459   0.00001   0.09404
   7        1PY         0.10870   0.00001   0.38161   0.00001  -0.00423
   8        1PZ         0.00000   0.29190  -0.00002   0.26644   0.00001
   9 3   C  1S          0.09490   0.00000   0.04635   0.00000  -0.02365
  10        1PX        -0.00853   0.00000  -0.19044  -0.00001  -0.01353
  11        1PY         0.17622  -0.00001  -0.11922   0.00000  -0.02930
  12        1PZ         0.00000   0.45619  -0.00001  -0.04838   0.00000
  13 4   C  1S          0.00893   0.00000  -0.04952   0.00000  -0.05816
  14        1PX         0.06647   0.00003   0.29759   0.00003   0.08583
  15        1PY        -0.14289   0.00001   0.07962   0.00000   0.05317
  16        1PZ         0.00000   0.07337   0.00003  -0.31184   0.00001
  17 5   C  1S         -0.11456   0.00001   0.02890   0.00001   0.04130
  18        1PX        -0.11317  -0.00003  -0.23238  -0.00003  -0.10317
  19        1PY         0.11511  -0.00001  -0.00511  -0.00001  -0.04922
  20        1PZ         0.00000  -0.26818   0.00006  -0.45267   0.00002
  21 6   N  1S          0.09029  -0.00003  -0.26932  -0.00003  -0.15346
  22        1PX        -0.06536   0.00002   0.40743   0.00003   0.21601
  23        1PY         0.13505  -0.00001  -0.10192  -0.00001  -0.07832
  24        1PZ         0.00000  -0.45370   0.00004  -0.28143   0.00000
  25 7   H  1S          0.02651  -0.00001  -0.00502  -0.00001  -0.02210
  26 8   Cl 1S         -0.00258   0.00000  -0.02852   0.00000  -0.01027
  27        1PX         0.01817   0.00001   0.21757   0.00000  -0.07096
  28        1PY        -0.01801   0.00001   0.03299   0.00000   0.49638
  29        1PZ         0.00000  -0.20380  -0.00001   0.64366   0.00000
  30        1D 0       -0.00012   0.00000   0.00314   0.00000   0.00135
  31        1D+1        0.00000  -0.00424   0.00000   0.00647   0.00000
  32        1D-1        0.00000  -0.00424   0.00000   0.00034   0.00000
  33        1D+2       -0.00038   0.00000   0.00398   0.00000   0.00102
  34        1D-2        0.00023   0.00000   0.00280   0.00000  -0.00019
  35 9   Cl 1S          0.02118   0.00000   0.00387   0.00000  -0.00469
  36        1PX         0.05604   0.00000  -0.19448  -0.00001   0.54383
  37        1PY        -0.07330  -0.00002  -0.21482  -0.00002   0.56010
  38        1PZ        -0.00001   0.57103  -0.00004  -0.12380  -0.00004
  39        1D 0        0.00264   0.00000   0.00103   0.00000  -0.00032
  40        1D+1        0.00000  -0.00989   0.00000  -0.00013   0.00000
  41        1D-1        0.00000   0.00829   0.00000  -0.00079   0.00000
  42        1D+2       -0.00002   0.00000  -0.00063   0.00000   0.00194
  43        1D-2       -0.00582   0.00000  -0.00176   0.00000   0.00100
  44 10  C  1S         -0.00204   0.00000   0.05267   0.00001  -0.00122
  45        1PX        -0.25151  -0.00003  -0.26224  -0.00003  -0.09489
  46        1PY         0.65369   0.00000  -0.10758   0.00000   0.03521
  47        1PZ        -0.00001  -0.11638  -0.00002   0.17257   0.00000
  48 11  H  1S         -0.24418  -0.06689  -0.04460   0.11220  -0.03621
  49 12  H  1S         -0.24416   0.06687  -0.04458  -0.11222  -0.03621
  50 13  H  1S          0.47446   0.00000  -0.06124   0.00000   0.02949
                          21        22        23        24        25
                           O         O         O         O         V
     Eigenvalues --    -0.41958  -0.41667  -0.39482  -0.38154  -0.04455
   1 1   C  1S         -0.00204   0.00000  -0.01368   0.00000   0.00000
   2        1PX         0.01536   0.00000   0.06375   0.00001  -0.00002
   3        1PY         0.00687   0.00000  -0.21973   0.00000  -0.00001
   4        1PZ         0.00000  -0.05410   0.00001  -0.31625   0.56911
   5 2   N  1S          0.08202   0.00000  -0.22239   0.00000   0.00000
   6        1PX        -0.14851   0.00000   0.01840  -0.00001   0.00000
   7        1PY        -0.08673   0.00002   0.54885   0.00002   0.00001
   8        1PZ         0.00003  -0.43803   0.00003  -0.13992  -0.10638
   9 3   C  1S         -0.02157   0.00000   0.02098   0.00000  -0.00001
  10        1PX         0.08957   0.00000  -0.08792   0.00000  -0.00002
  11        1PY         0.05486   0.00000  -0.11716  -0.00001   0.00001
  12        1PZ         0.00001  -0.16920   0.00000   0.26660  -0.43096
  13 4   C  1S          0.03424   0.00000   0.00470   0.00001   0.00001
  14        1PX        -0.01399   0.00000  -0.09273  -0.00002  -0.00001
  15        1PY        -0.09961   0.00000   0.25286   0.00002   0.00001
  16        1PZ         0.00001  -0.03730  -0.00003   0.53228   0.55254
  17 5   C  1S          0.01245   0.00000  -0.05697  -0.00001   0.00001
  18        1PX        -0.04889   0.00000   0.12801   0.00002  -0.00002
  19        1PY         0.00215   0.00000  -0.09185   0.00000   0.00000
  20        1PZ         0.00000   0.13839  -0.00003   0.21366  -0.14809
  21 6   N  1S         -0.04963   0.00000   0.23793   0.00001  -0.00001
  22        1PX         0.03886   0.00001  -0.34681  -0.00004  -0.00002
  23        1PY         0.02595   0.00001   0.42403   0.00002   0.00000
  24        1PZ        -0.00001   0.16110   0.00001  -0.29680  -0.33581
  25 7   H  1S          0.00727   0.00000  -0.12894   0.00000   0.00000
  26 8   Cl 1S          0.00424   0.00000  -0.00091   0.00000   0.00000
  27        1PX        -0.31493  -0.00004  -0.06056  -0.00002  -0.00001
  28        1PY         0.75915   0.00008   0.20868  -0.00002   0.00000
  29        1PZ        -0.00003   0.47751  -0.00003   0.49133  -0.13809
  30        1D 0       -0.00067   0.00000   0.00014   0.00000   0.00000
  31        1D+1        0.00000  -0.00291   0.00000  -0.00854   0.01073
  32        1D-1        0.00000   0.00113   0.00000  -0.00352   0.00297
  33        1D+2        0.00156   0.00000  -0.00262   0.00000   0.00000
  34        1D-2       -0.00239   0.00000   0.00286   0.00000   0.00000
  35 9   Cl 1S          0.00302   0.00000  -0.01338   0.00000   0.00000
  36        1PX        -0.35223   0.00000  -0.07232  -0.00001  -0.00001
  37        1PY        -0.36399  -0.00001   0.19959   0.00002   0.00001
  38        1PZ        -0.00006   0.70848   0.00000  -0.32604   0.10174
  39        1D 0        0.00017   0.00000   0.00278   0.00000   0.00000
  40        1D+1        0.00000   0.00588   0.00000  -0.00470   0.00722
  41        1D-1        0.00000  -0.00245   0.00000   0.00472  -0.00537
  42        1D+2       -0.00232   0.00000  -0.00221   0.00000   0.00000
  43        1D-2       -0.00014   0.00000  -0.00054   0.00000   0.00000
  44 10  C  1S          0.00391   0.00000   0.00115   0.00000   0.00000
  45        1PX         0.03185   0.00000   0.01802   0.00001   0.00000
  46        1PY         0.01085   0.00000  -0.05761   0.00000   0.00000
  47        1PZ         0.00000  -0.00806   0.00001  -0.14477  -0.03597
  48 11  H  1S          0.00463  -0.00016   0.02722  -0.10835  -0.06382
  49 12  H  1S          0.00464   0.00016   0.02720   0.10836   0.06382
  50 13  H  1S          0.00969   0.00000  -0.05459  -0.00001   0.00000
                          26        27        28        29        30
                           V         V         V         V         V
     Eigenvalues --    -0.04142  -0.01443  -0.00397   0.05006   0.07422
   1 1   C  1S          0.00001  -0.35220  -0.25198  -0.00001   0.00071
   2        1PX        -0.00001   0.22968   0.44285   0.00000  -0.22740
   3        1PY         0.00001   0.20673   0.04138   0.00001   0.44600
   4        1PZ        -0.17077  -0.00001   0.00002   0.44954  -0.00001
   5 2   N  1S          0.00000   0.14179   0.01115   0.00001   0.30173
   6        1PX         0.00000  -0.00379   0.01062   0.00000   0.12706
   7        1PY         0.00000   0.07643   0.04177   0.00002   0.36469
   8        1PZ         0.48831   0.00000   0.00001  -0.38725   0.00001
   9 3   C  1S         -0.00001  -0.34724   0.19713   0.00000  -0.18064
  10        1PX        -0.00001  -0.18694   0.38511   0.00001   0.43837
  11        1PY         0.00001   0.33384  -0.22990   0.00000   0.04944
  12        1PZ        -0.45892   0.00000  -0.00003   0.38476  -0.00001
  13 4   C  1S          0.00001   0.04093  -0.03623   0.00000   0.01770
  14        1PX        -0.00001  -0.01593   0.06181   0.00000   0.08321
  15        1PY         0.00000  -0.04973   0.04917   0.00001   0.01747
  16        1PZ        -0.14482   0.00000   0.00002  -0.37323   0.00001
  17 5   C  1S         -0.00002  -0.08517  -0.03075  -0.00001   0.22199
  18        1PX         0.00000   0.01851   0.19071   0.00000  -0.22337
  19        1PY         0.00001   0.06790   0.00612   0.00001  -0.11581
  20        1PZ         0.60315  -0.00001   0.00000   0.41828   0.00000
  21 6   N  1S         -0.00001   0.03326   0.10398  -0.00001  -0.24056
  22        1PX        -0.00001   0.02827   0.03445  -0.00001  -0.18922
  23        1PY         0.00001  -0.06678  -0.03016   0.00001   0.18128
  24        1PZ        -0.35126   0.00001  -0.00003  -0.41295   0.00003
  25 7   H  1S          0.00000   0.04285  -0.00534   0.00000  -0.09420
  26 8   Cl 1S          0.00000   0.04316   0.04805   0.00000  -0.00433
  27        1PX        -0.00001   0.43827   0.45251   0.00001  -0.00228
  28        1PY        -0.00001   0.12919   0.17874   0.00000  -0.09143
  29        1PZ         0.04115   0.00002   0.00001  -0.07979   0.00000
  30        1D 0        0.00000   0.00963   0.00960   0.00000  -0.00021
  31        1D+1       -0.00224   0.00000   0.00000   0.00609   0.00000
  32        1D-1       -0.00365   0.00000   0.00000   0.00204   0.00000
  33        1D+2        0.00000  -0.01440  -0.01191   0.00000  -0.00604
  34        1D-2        0.00000  -0.00899  -0.01156   0.00000   0.00967
  35 9   Cl 1S          0.00000   0.04902  -0.04457   0.00000  -0.00906
  36        1PX        -0.00001  -0.38002   0.30647   0.00000   0.01346
  37        1PY         0.00001   0.32298  -0.30943   0.00000  -0.08551
  38        1PZ         0.10602   0.00001   0.00000  -0.06677   0.00000
  39        1D 0        0.00000   0.01051  -0.00830   0.00000   0.00009
  40        1D+1        0.00511   0.00000   0.00000  -0.00370   0.00000
  41        1D-1       -0.00715   0.00000   0.00000   0.00457   0.00000
  42        1D+2        0.00000  -0.00404  -0.00033   0.00000  -0.00683
  43        1D-2        0.00000   0.01817  -0.01508   0.00000  -0.00151
  44 10  C  1S          0.00000  -0.00446  -0.03511   0.00000  -0.03297
  45        1PX         0.00000   0.00626   0.07562   0.00001   0.08643
  46        1PY         0.00000   0.00282   0.02251   0.00000   0.03635
  47        1PZ         0.01090   0.00000   0.00000   0.00325   0.00000
  48 11  H  1S          0.01578  -0.00192  -0.00103   0.04584  -0.01377
  49 12  H  1S         -0.01578  -0.00192  -0.00102  -0.04584  -0.01376
  50 13  H  1S          0.00000   0.00582  -0.00468   0.00000   0.00419
                          31        32        33        34        35
                           V         V         V         V         V
     Eigenvalues --     0.08251   0.09966   0.10259   0.12744   0.14833
   1 1   C  1S          0.30255   0.27770  -0.02162   0.07874   0.23590
   2        1PX         0.41368   0.16440  -0.01017   0.15500   0.01414
   3        1PY         0.24120   0.05589   0.16118   0.05797  -0.01418
   4        1PZ         0.00001   0.00001   0.00000   0.00000   0.00001
   5 2   N  1S         -0.13028  -0.05800   0.02251  -0.08032   0.06350
   6        1PX         0.03616   0.17753  -0.17302  -0.08022   0.35942
   7        1PY        -0.28756  -0.17844  -0.08739  -0.18003  -0.02765
   8        1PZ         0.00000   0.00000   0.00000   0.00000   0.00000
   9 3   C  1S         -0.07180  -0.03176   0.40596   0.15952  -0.17867
  10        1PX        -0.11159  -0.03224   0.04605  -0.18148   0.23948
  11        1PY        -0.19087   0.08206   0.41505   0.21195   0.18053
  12        1PZ         0.00000   0.00000   0.00000   0.00000   0.00000
  13 4   C  1S          0.08787   0.38231  -0.24477  -0.38502  -0.22120
  14        1PX        -0.32215   0.31315  -0.18925   0.46145  -0.15278
  15        1PY        -0.14703   0.26757   0.59123  -0.10203  -0.13765
  16        1PZ        -0.00001   0.00000   0.00000   0.00000   0.00000
  17 5   C  1S          0.02630  -0.13874  -0.08670   0.45866  -0.01305
  18        1PX        -0.28317  -0.01879  -0.18617   0.22927   0.45179
  19        1PY         0.01038   0.18647   0.19466  -0.27673   0.25206
  20        1PZ         0.00001  -0.00002  -0.00001   0.00002  -0.00001
  21 6   N  1S         -0.22607  -0.02658  -0.06005  -0.07060   0.10815
  22        1PX        -0.24710   0.14120   0.01986  -0.20656   0.31962
  23        1PY         0.32641   0.22623   0.02573   0.11555   0.22674
  24        1PZ         0.00002   0.00000   0.00001   0.00000  -0.00002
  25 7   H  1S         -0.02422  -0.11470  -0.14924  -0.16420  -0.31111
  26 8   Cl 1S          0.01587  -0.00215   0.00376   0.00612  -0.00934
  27        1PX         0.11541  -0.01541   0.02940   0.03699  -0.05438
  28        1PY         0.02466  -0.00143  -0.00468   0.01205  -0.01504
  29        1PZ         0.00000   0.00000   0.00000   0.00000   0.00000
  30        1D 0       -0.00010  -0.00079  -0.00002  -0.00088  -0.00014
  31        1D+1        0.00000   0.00000   0.00000   0.00000   0.00000
  32        1D-1        0.00000   0.00000   0.00000   0.00000   0.00000
  33        1D+2       -0.00247   0.00339  -0.00103  -0.00116   0.00436
  34        1D-2        0.00067   0.00132  -0.00085  -0.00042   0.00260
  35 9   Cl 1S         -0.00079   0.00703  -0.00285   0.00986   0.00510
  36        1PX         0.02956  -0.03088  -0.01222  -0.04927  -0.04262
  37        1PY         0.02207   0.03894  -0.03336   0.03818   0.00040
  38        1PZ         0.00000   0.00000   0.00000   0.00000   0.00000
  39        1D 0       -0.00077  -0.00018  -0.00196   0.00048   0.00093
  40        1D+1        0.00000   0.00000   0.00000   0.00000   0.00000
  41        1D-1        0.00000   0.00000   0.00000   0.00000   0.00000
  42        1D+2        0.00527   0.00172  -0.00241  -0.00006  -0.00206
  43        1D-2        0.00184   0.00083  -0.00573   0.00126   0.00378
  44 10  C  1S          0.09462  -0.20597   0.06664   0.01143   0.06283
  45        1PX        -0.24021   0.52156  -0.14602   0.07029  -0.21577
  46        1PY        -0.07920   0.19682  -0.01101   0.00352  -0.08775
  47        1PZ         0.00000   0.00000   0.00000   0.00000   0.00000
  48 11  H  1S          0.02516  -0.02701   0.05009  -0.06365   0.02285
  49 12  H  1S          0.02516  -0.02701   0.05009  -0.06364   0.02285
  50 13  H  1S          0.03104  -0.06808  -0.10384   0.00541   0.05100
                          36        37        38        39        40
                           V         V         V         V         V
     Eigenvalues --     0.16496   0.18032   0.18677   0.18806   0.22071
   1 1   C  1S          0.13861   0.07325  -0.01865   0.00000   0.00386
   2        1PX         0.14928  -0.12192   0.02306   0.00000  -0.00522
   3        1PY        -0.27164   0.40629  -0.07723   0.00000   0.00232
   4        1PZ         0.00000   0.00001   0.00000   0.00180   0.00000
   5 2   N  1S          0.00710   0.03050  -0.00679   0.00000   0.00548
   6        1PX         0.43091  -0.27148   0.04168   0.00000   0.01013
   7        1PY        -0.11358   0.03771  -0.01416   0.00000   0.00573
   8        1PZ         0.00000   0.00000   0.00000  -0.00656   0.00000
   9 3   C  1S         -0.09018   0.11820   0.01457   0.00000  -0.01385
  10        1PX         0.25540  -0.10950   0.02421   0.00000   0.02269
  11        1PY         0.29582  -0.05626   0.04136   0.00000  -0.01326
  12        1PZ         0.00000   0.00000   0.00000   0.02192   0.00000
  13 4   C  1S         -0.15475  -0.07268   0.02707   0.00000  -0.01078
  14        1PX         0.01053   0.03051  -0.04299   0.00000  -0.10753
  15        1PY         0.16139  -0.00052   0.11198   0.00000  -0.03353
  16        1PZ         0.00000   0.00001   0.00000  -0.06874   0.00000
  17 5   C  1S         -0.16991  -0.33568   0.03386   0.00000  -0.02793
  18        1PX        -0.10451   0.28270  -0.10278   0.00000   0.01595
  19        1PY        -0.39906  -0.26148   0.08656   0.00000   0.02006
  20        1PZ         0.00000  -0.00002   0.00000   0.01904   0.00000
  21 6   N  1S          0.00685  -0.00800  -0.00231   0.00000   0.00717
  22        1PX        -0.12670   0.29722  -0.05628   0.00000   0.02036
  23        1PY        -0.03100   0.38256  -0.08483   0.00000   0.00826
  24        1PZ         0.00000   0.00000   0.00000  -0.00584   0.00000
  25 7   H  1S          0.50486   0.40026  -0.09710   0.00000   0.01899
  26 8   Cl 1S         -0.00303  -0.00188   0.00053   0.00000  -0.00033
  27        1PX        -0.02456   0.00030   0.00075   0.00000  -0.00147
  28        1PY         0.01504  -0.03323   0.00674   0.00000  -0.00068
  29        1PZ         0.00000   0.00000   0.00000   0.00001   0.00000
  30        1D 0       -0.00036  -0.00006   0.00001   0.00000   0.00006
  31        1D+1        0.00000   0.00000   0.00000  -0.00003   0.00000
  32        1D-1        0.00000   0.00000   0.00000  -0.00001   0.00000
  33        1D+2        0.00165   0.00049  -0.00009   0.00000   0.00013
  34        1D-2        0.00108   0.00111  -0.00036   0.00000   0.00006
  35 9   Cl 1S          0.00498  -0.00269   0.00010   0.00000   0.00051
  36        1PX        -0.04302   0.01518  -0.00185   0.00000   0.00818
  37        1PY        -0.00282  -0.00650  -0.00446   0.00000   0.00802
  38        1PZ         0.00000   0.00000   0.00000   0.00231   0.00000
  39        1D 0        0.00005  -0.00025  -0.00084   0.00000   0.00025
  40        1D+1        0.00000   0.00000   0.00000  -0.00150   0.00000
  41        1D-1        0.00000   0.00000   0.00000  -0.00227   0.00000
  42        1D+2       -0.00167  -0.00007  -0.00087   0.00000   0.00094
  43        1D-2        0.00207  -0.00165  -0.00053   0.00000  -0.00207
  44 10  C  1S          0.00639  -0.01570  -0.02715   0.00000   0.63203
  45        1PX        -0.03015   0.02581   0.20267   0.00000   0.20800
  46        1PY        -0.01808  -0.14131  -0.58633  -0.00002   0.04443
  47        1PZ         0.00000   0.00000  -0.00002   0.63701   0.00000
  48 11  H  1S          0.00357  -0.05334  -0.28597  -0.54248  -0.43770
  49 12  H  1S          0.00357  -0.05334  -0.28599   0.54247  -0.43770
  50 13  H  1S         -0.00889   0.13934   0.62073   0.00001  -0.39467
                          41        42        43        44        45
                           V         V         V         V         V
     Eigenvalues --     3.17206   3.17294   3.17968   3.18386   3.18452
   1 1   C  1S         -0.04559   0.00000  -0.00171  -0.00226   0.00000
   2        1PX         0.01775   0.00000   0.00843   0.00240   0.00000
   3        1PY         0.00714   0.00000  -0.02001   0.00219   0.00000
   4        1PZ         0.00000  -0.02420   0.00000   0.00000   0.00124
   5 2   N  1S         -0.01090   0.00000   0.01237   0.00480   0.00000
   6        1PX         0.00671   0.00000  -0.00688   0.00891   0.00000
   7        1PY        -0.00419   0.00000  -0.00554   0.00307   0.00000
   8        1PZ         0.00000  -0.00613   0.00000   0.00000  -0.00533
   9 3   C  1S         -0.00725   0.00000   0.00804   0.04360   0.00000
  10        1PX         0.00125   0.00000  -0.00210   0.01741   0.00000
  11        1PY         0.00227   0.00000  -0.00558  -0.00915   0.00000
  12        1PZ         0.00000  -0.00210   0.00000   0.00000  -0.02401
  13 4   C  1S         -0.00138   0.00000  -0.00034   0.01106   0.00000
  14        1PX         0.00105   0.00000  -0.00086   0.00108   0.00000
  15        1PY         0.00066   0.00000  -0.00017  -0.00661   0.00000
  16        1PZ         0.00000  -0.00067   0.00000   0.00000  -0.00393
  17 5   C  1S         -0.00232   0.00000  -0.00161   0.00170   0.00000
  18        1PX         0.00150   0.00000   0.00160   0.00078   0.00000
  19        1PY         0.00141   0.00000   0.00035  -0.00135   0.00000
  20        1PZ         0.00000  -0.00043   0.00000   0.00000  -0.00027
  21 6   N  1S         -0.00895   0.00000  -0.00996   0.00069   0.00000
  22        1PX         0.00291   0.00000   0.01052  -0.00024   0.00000
  23        1PY         0.00840   0.00000   0.00363  -0.00001   0.00000
  24        1PZ         0.00000  -0.00571   0.00000   0.00000   0.00013
  25 7   H  1S         -0.00032   0.00000  -0.00034   0.00024   0.00000
  26 8   Cl 1S          0.00198   0.00000   0.00010   0.00020   0.00000
  27        1PX        -0.00115   0.00000   0.00021   0.00002   0.00000
  28        1PY        -0.00033   0.00000  -0.00074   0.00007   0.00000
  29        1PZ         0.00000  -0.00107   0.00000   0.00000   0.00002
  30        1D 0       -0.58708   0.00005  -0.02507  -0.06198  -0.00001
  31        1D+1        0.00005   0.94179   0.00001   0.00001  -0.05756
  32        1D-1        0.00002   0.32783   0.00003   0.00000  -0.04395
  33        1D+2        0.64010  -0.00001  -0.57089   0.11723   0.00001
  34        1D-2        0.47821  -0.00003   0.78515  -0.03954  -0.00001
  35 9   Cl 1S          0.00021   0.00000  -0.00030  -0.00195   0.00000
  36        1PX         0.00031   0.00000  -0.00032  -0.00126   0.00000
  37        1PY        -0.00006   0.00000  -0.00016   0.00058   0.00000
  38        1PZ         0.00000  -0.00012   0.00000   0.00000  -0.00109
  39        1D 0       -0.06008   0.00000   0.09465   0.54941   0.00008
  40        1D+1        0.00000  -0.05723   0.00000   0.00007  -0.69213
  41        1D-1        0.00000   0.04034   0.00000  -0.00008   0.71769
  42        1D+2        0.05382   0.00000  -0.19199   0.18982   0.00002
  43        1D-2       -0.08690   0.00000   0.10066   0.80022   0.00007
  44 10  C  1S          0.00023   0.00000  -0.00111   0.00170   0.00000
  45        1PX         0.00019   0.00000   0.00007  -0.00194   0.00000
  46        1PY        -0.00029   0.00000   0.00099  -0.00083   0.00000
  47        1PZ         0.00000  -0.00007   0.00000   0.00000  -0.00156
  48 11  H  1S          0.00040  -0.00006  -0.00097  -0.00098  -0.00167
  49 12  H  1S          0.00040   0.00006  -0.00097  -0.00098   0.00167
  50 13  H  1S          0.00002   0.00000  -0.00017   0.00028   0.00000
                          46        47        48        49        50
                           V         V         V         V         V
     Eigenvalues --     3.18989   3.20426   3.20472   3.21104   3.21141
   1 1   C  1S          0.00110   0.00000  -0.00536   0.00000   0.00071
   2        1PX        -0.00104   0.00000   0.00199   0.00000  -0.00023
   3        1PY        -0.00352   0.00000   0.00076   0.00000   0.00013
   4        1PZ         0.00000  -0.00005   0.00000  -0.00020   0.00000
   5 2   N  1S         -0.00864   0.00000   0.00176   0.00000   0.00230
   6        1PX        -0.01199   0.00000  -0.00255   0.00000   0.00190
   7        1PY         0.00674   0.00000  -0.00339   0.00000  -0.00405
   8        1PZ         0.00000   0.00345   0.00000   0.00333   0.00000
   9 3   C  1S         -0.00879   0.00000  -0.00016   0.00000  -0.00397
  10        1PX         0.01098   0.00000   0.00036   0.00000  -0.00176
  11        1PY         0.01760   0.00000   0.00044   0.00000   0.00033
  12        1PZ         0.00000  -0.00037   0.00000   0.00102   0.00000
  13 4   C  1S          0.00678   0.00000   0.00040   0.00000   0.00116
  14        1PX         0.00511   0.00000   0.00046   0.00000   0.00203
  15        1PY        -0.00331   0.00000  -0.00019   0.00000  -0.00023
  16        1PZ         0.00000  -0.00023   0.00000  -0.00198   0.00000
  17 5   C  1S          0.00029   0.00000   0.00017   0.00000   0.00002
  18        1PX         0.00082   0.00000  -0.00019   0.00000   0.00004
  19        1PY        -0.00015   0.00000   0.00008   0.00000   0.00007
  20        1PZ         0.00000  -0.00010   0.00000  -0.00005   0.00000
  21 6   N  1S         -0.00177   0.00000   0.00194   0.00000   0.00004
  22        1PX         0.00224   0.00000  -0.00395   0.00000   0.00003
  23        1PY         0.00040   0.00000   0.00112   0.00000  -0.00016
  24        1PZ         0.00000  -0.00335   0.00000   0.00018   0.00000
  25 7   H  1S          0.00006   0.00000   0.00007   0.00000   0.00002
  26 8   Cl 1S         -0.00016   0.00000   0.00003   0.00000   0.00001
  27        1PX        -0.00012   0.00000  -0.00027   0.00000   0.00008
  28        1PY        -0.00006   0.00000  -0.00003   0.00000  -0.00003
  29        1PZ         0.00000  -0.00006   0.00000   0.00003   0.00000
  30        1D 0        0.00608   0.00002   0.80321   0.00000  -0.06987
  31        1D+1        0.00000  -0.32843  -0.00001   0.03562   0.00000
  32        1D-1        0.00001   0.94163  -0.00003  -0.06200   0.00000
  33        1D+2       -0.19261   0.00003   0.45967   0.00000  -0.02389
  34        1D-2        0.12215  -0.00001   0.36660   0.00000  -0.05092
  35 9   Cl 1S          0.00055   0.00000   0.00002   0.00000   0.00007
  36        1PX        -0.00012   0.00000   0.00001   0.00000   0.00105
  37        1PY         0.00117   0.00000   0.00009   0.00000   0.00068
  38        1PZ         0.00000  -0.00007   0.00000  -0.00122   0.00000
  39        1D 0       -0.07320   0.00000   0.07333   0.00001   0.82099
  40        1D+1       -0.00002   0.03492   0.00000   0.71841   0.00001
  41        1D-1       -0.00002   0.06501   0.00000   0.69190  -0.00002
  42        1D+2        0.95988   0.00000   0.03918   0.00003  -0.01881
  43        1D-2       -0.14223   0.00000  -0.04665  -0.00001  -0.56342
  44 10  C  1S          0.00634   0.00000   0.00065   0.00000   0.00439
  45        1PX        -0.00109   0.00000   0.00001   0.00000   0.00084
  46        1PY        -0.00544   0.00000  -0.00058   0.00000  -0.00411
  47        1PZ         0.00000  -0.00018   0.00000  -0.00198   0.00000
  48 11  H  1S          0.00444  -0.00028   0.00053  -0.00348   0.00421
  49 12  H  1S          0.00444   0.00028   0.00053   0.00348   0.00421
  50 13  H  1S          0.00092   0.00000   0.00009   0.00000   0.00060
     Density Matrix:
                           1         2         3         4         5
   1 1   C  1S          1.10886
   2        1PX        -0.00881   0.87765
   3        1PY         0.00687   0.02282   0.84099
   4        1PZ         0.00000   0.00000   0.00000   0.88854
   5 2   N  1S          0.19215   0.21846  -0.27694   0.00000   1.71193
   6        1PX        -0.35999  -0.22383   0.38593   0.00000  -0.08564
   7        1PY         0.41005   0.48923  -0.24812  -0.00001  -0.36056
   8        1PZ         0.00000  -0.00001  -0.00001   0.63578   0.00000
   9 3   C  1S          0.00075  -0.00871   0.02960   0.00000   0.20424
  10        1PX         0.01093  -0.00640  -0.04392   0.00000  -0.31132
  11        1PY         0.01654   0.03732  -0.02066   0.00000  -0.16665
  12        1PZ         0.00000   0.00000   0.00000  -0.01225   0.00000
  13 4   C  1S         -0.04599  -0.02931  -0.01834   0.00000   0.03013
  14        1PX         0.02398   0.01655   0.02559   0.00001   0.00606
  15        1PY        -0.00353   0.01464  -0.03519  -0.00001  -0.03068
  16        1PZ         0.00001   0.00000   0.00001  -0.34258   0.00000
  17 5   C  1S          0.01307   0.01473   0.00274   0.00000  -0.01549
  18        1PX         0.01768  -0.02122   0.05835   0.00001   0.01983
  19        1PY         0.02643  -0.02501   0.03429   0.00000   0.01220
  20        1PZ         0.00000   0.00000  -0.00001  -0.00161   0.00000
  21 6   N  1S          0.18353  -0.00673   0.34440   0.00001   0.04934
  22        1PX        -0.01919   0.19671  -0.03446   0.00002  -0.03473
  23        1PY        -0.55961  -0.14015  -0.67041  -0.00003  -0.01392
  24        1PZ        -0.00001  -0.00001  -0.00003   0.63328   0.00000
  25 7   H  1S          0.06979   0.00818   0.08354   0.00000   0.01195
  26 8   Cl 1S          0.05114  -0.07799  -0.02763   0.00000  -0.00461
  27        1PX         0.50330  -0.69551  -0.29932  -0.00001  -0.09286
  28        1PY         0.17301  -0.29546   0.03749   0.00000   0.02679
  29        1PZ         0.00002  -0.00003  -0.00001   0.24293   0.00000
  30        1D 0       -0.03277   0.00605   0.00200   0.00000  -0.01703
  31        1D+1        0.00000   0.00000   0.00000   0.02724   0.00000
  32        1D-1        0.00000   0.00000   0.00000   0.00958   0.00000
  33        1D+2        0.04333  -0.00070  -0.02034   0.00000   0.02910
  34        1D-2        0.03486  -0.01347   0.02068   0.00000  -0.01071
  35 9   Cl 1S          0.00359   0.00579  -0.00407   0.00000  -0.00564
  36        1PX        -0.07707  -0.07211   0.08135   0.00000   0.09457
  37        1PY         0.03057   0.04277  -0.03729   0.00000  -0.01494
  38        1PZ         0.00000   0.00000   0.00000  -0.01957   0.00000
  39        1D 0        0.00029   0.00084  -0.00124   0.00000  -0.01724
  40        1D+1        0.00000   0.00000   0.00000  -0.00390   0.00000
  41        1D-1        0.00000   0.00000   0.00000   0.00002   0.00000
  42        1D+2       -0.00239  -0.00307   0.00221   0.00000   0.02786
  43        1D-2       -0.00228  -0.00192  -0.00071   0.00000  -0.01503
  44 10  C  1S          0.00244   0.00575  -0.00040   0.00000   0.00723
  45        1PX        -0.00696  -0.01383  -0.00258   0.00000  -0.01311
  46        1PY        -0.00425  -0.00428  -0.00436   0.00000  -0.00851
  47        1PZ         0.00000   0.00000   0.00000   0.03945   0.00000
  48 11  H  1S         -0.00111  -0.00174  -0.00096   0.03877   0.00113
  49 12  H  1S         -0.00111  -0.00174  -0.00096  -0.03877   0.00113
  50 13  H  1S         -0.00038  -0.00127   0.00083   0.00000  -0.00042
                           6         7         8         9        10
   6        1PX         1.04760
   7        1PY         0.07143   1.37877
   8        1PZ         0.00000   0.00001   1.20028
   9 3   C  1S          0.49026   0.20526   0.00000   1.10996
  10        1PX        -0.56893  -0.37665   0.00000   0.03531   0.87985
  11        1PY        -0.26082   0.08301   0.00000   0.04437   0.00856
  12        1PZ         0.00000   0.00000   0.65449   0.00000   0.00000
  13 4   C  1S         -0.04114  -0.05174   0.00000   0.31587   0.12248
  14        1PX         0.02123  -0.01226   0.00000  -0.08690   0.08798
  15        1PY         0.04893   0.10101   0.00000  -0.52282  -0.19905
  16        1PZ         0.00000   0.00000  -0.03101   0.00000   0.00001
  17 5   C  1S          0.00583  -0.04349   0.00001  -0.00567  -0.01231
  18        1PX        -0.02058   0.00145  -0.00001  -0.02774  -0.00506
  19        1PY        -0.00105   0.02574  -0.00001   0.02455   0.03898
  20        1PZ         0.00000   0.00000  -0.29634   0.00000   0.00000
  21 6   N  1S         -0.03515  -0.00589   0.00000  -0.02571   0.01372
  22        1PX         0.03427  -0.06707   0.00000  -0.01582   0.00562
  23        1PY        -0.04413   0.16933   0.00000   0.02227  -0.03893
  24        1PZ         0.00000   0.00001  -0.04836   0.00000   0.00000
  25 7   H  1S          0.00244  -0.01315   0.00000   0.04923   0.02669
  26 8   Cl 1S          0.01054   0.00274   0.00000   0.00315  -0.00621
  27        1PX         0.06793  -0.03238   0.00000   0.08104  -0.10849
  28        1PY        -0.00129   0.05447   0.00000  -0.00540  -0.00705
  29        1PZ         0.00000   0.00000  -0.13139   0.00000   0.00000
  30        1D 0        0.01358  -0.00288   0.00000   0.00006  -0.00120
  31        1D+1        0.00000   0.00000   0.02214   0.00000   0.00000
  32        1D-1        0.00000   0.00000   0.00325   0.00000   0.00000
  33        1D+2       -0.02490   0.01122   0.00000   0.00013   0.00133
  34        1D-2        0.00476   0.00951   0.00000   0.00331  -0.00396
  35 9   Cl 1S         -0.00762   0.00956   0.00000   0.05140   0.05916
  36        1PX         0.05983  -0.00462   0.00000  -0.37813  -0.35661
  37        1PY         0.00874   0.07299   0.00000   0.33745   0.45805
  38        1PZ         0.00000   0.00000  -0.13358   0.00001   0.00002
  39        1D 0       -0.01321   0.00371   0.00000  -0.03271  -0.00422
  40        1D+1        0.00000   0.00000  -0.01945   0.00000   0.00000
  41        1D-1        0.00000   0.00000   0.01243   0.00000   0.00000
  42        1D+2        0.01935  -0.00736   0.00000   0.00079  -0.02069
  43        1D-2       -0.01990  -0.00629   0.00000  -0.05498  -0.00796
  44 10  C  1S          0.03062   0.02237   0.00000  -0.01279  -0.00422
  45        1PX        -0.05659  -0.03987   0.00000   0.01190  -0.00746
  46        1PY        -0.02726  -0.02016   0.00000   0.03219  -0.00401
  47        1PZ         0.00000   0.00000  -0.00742   0.00000   0.00000
  48 11  H  1S          0.00274   0.00408  -0.00060  -0.00652  -0.00249
  49 12  H  1S          0.00274   0.00408   0.00060  -0.00652  -0.00249
  50 13  H  1S         -0.01114  -0.01383   0.00000   0.04478   0.01462
                          11        12        13        14        15
  11        1PY         0.89462
  12        1PZ         0.00000   0.90913
  13 4   C  1S          0.45215   0.00000   1.11097
  14        1PX        -0.12916  -0.00001   0.02272   1.00115
  15        1PY        -0.54949   0.00001   0.02152   0.00211   0.96585
  16        1PZ         0.00000   0.63337   0.00000   0.00000   0.00000
  17 5   C  1S         -0.00493   0.00000   0.29945  -0.37116   0.30635
  18        1PX        -0.01081   0.00000   0.38426  -0.32097   0.36710
  19        1PY         0.00702   0.00000  -0.31743   0.35280  -0.19332
  20        1PZ         0.00000   0.10322   0.00001  -0.00001   0.00001
  21 6   N  1S          0.00361   0.00000   0.03868  -0.02360   0.03439
  22        1PX        -0.03253  -0.00001  -0.05811   0.06037  -0.06465
  23        1PY         0.01668   0.00001   0.01921  -0.01579   0.05044
  24        1PZ         0.00000  -0.29383   0.00000   0.00000   0.00000
  25 7   H  1S          0.04851   0.00000  -0.02564   0.03460  -0.01986
  26 8   Cl 1S         -0.00070   0.00000   0.00013   0.00080   0.00060
  27        1PX        -0.04372   0.00000  -0.00033   0.00304   0.00683
  28        1PY         0.00561   0.00000   0.00214  -0.00132   0.00389
  29        1PZ         0.00000  -0.01986   0.00000   0.00000   0.00000
  30        1D 0       -0.00087   0.00000  -0.00117   0.00117   0.00060
  31        1D+1        0.00000   0.00339   0.00000   0.00000   0.00000
  32        1D-1        0.00000  -0.00226   0.00000   0.00000   0.00000
  33        1D+2        0.00135   0.00000   0.00058  -0.00066  -0.00152
  34        1D-2        0.00050   0.00000   0.00024  -0.00106   0.00080
  35 9   Cl 1S         -0.06074   0.00000  -0.00251  -0.00478   0.01074
  36        1PX         0.48360   0.00001  -0.00233   0.01555  -0.03568
  37        1PY        -0.33459  -0.00001  -0.06767   0.00664   0.10099
  38        1PZ        -0.00002   0.23623   0.00000   0.00000   0.00000
  39        1D 0        0.00336   0.00000  -0.01456  -0.00348   0.01188
  40        1D+1        0.00000  -0.02108   0.00000   0.00000   0.00000
  41        1D-1        0.00000   0.01866   0.00000   0.00000   0.00000
  42        1D+2       -0.02392   0.00000  -0.02148  -0.00856   0.01229
  43        1D-2        0.00467   0.00000  -0.01786   0.00316   0.02033
  44 10  C  1S         -0.00958   0.00000   0.22373   0.36784   0.12949
  45        1PX         0.02356   0.00000  -0.47950  -0.62979  -0.25369
  46        1PY         0.02634   0.00000  -0.17129  -0.24905  -0.00229
  47        1PZ         0.00000  -0.05151   0.00000   0.00000   0.00000
  48 11  H  1S         -0.00289  -0.05209   0.00177   0.00456  -0.01017
  49 12  H  1S         -0.00289   0.05209   0.00177   0.00456  -0.01017
  50 13  H  1S          0.04115   0.00000  -0.00311  -0.00584   0.02192
                          16        17        18        19        20
  16        1PZ         1.05935
  17 5   C  1S         -0.00002   1.12207
  18        1PX         0.00000   0.05507   0.87970
  19        1PY         0.00002   0.09285   0.00949   1.06707
  20        1PZ         0.65320  -0.00001   0.00000   0.00000   0.87792
  21 6   N  1S          0.00000   0.17799  -0.35979  -0.11568   0.00002
  22        1PX         0.00000   0.50587  -0.62685  -0.31558   0.00005
  23        1PY         0.00000   0.10883  -0.20048   0.08955   0.00000
  24        1PZ        -0.03971  -0.00003   0.00004   0.00002   0.66995
  25 7   H  1S          0.00000   0.58279   0.09983   0.76807   0.00000
  26 8   Cl 1S          0.00000   0.00326  -0.00538  -0.00383   0.00000
  27        1PX        -0.00001   0.05462  -0.08704  -0.04531   0.00001
  28        1PY         0.00000   0.04195  -0.07023  -0.03133   0.00001
  29        1PZ         0.10496   0.00000  -0.00001   0.00000  -0.02379
  30        1D 0        0.00000  -0.00011  -0.00148  -0.00052   0.00000
  31        1D+1       -0.00718   0.00000   0.00000   0.00000   0.00150
  32        1D-1       -0.00254   0.00000   0.00000   0.00000   0.00403
  33        1D+2        0.00000   0.00317  -0.00242  -0.00259   0.00000
  34        1D-2        0.00000  -0.00007   0.00260   0.00136   0.00000
  35 9   Cl 1S          0.00000   0.00213   0.00333  -0.00430   0.00000
  36        1PX         0.00000  -0.02386  -0.04289   0.03445   0.00000
  37        1PY         0.00000   0.03822   0.05346  -0.04615   0.00000
  38        1PZ        -0.13125   0.00000   0.00000   0.00000  -0.04200
  39        1D 0        0.00000  -0.00147  -0.00034   0.00083   0.00000
  40        1D+1       -0.01212   0.00000   0.00000   0.00000  -0.00122
  41        1D-1        0.01544   0.00000   0.00000   0.00000   0.00381
  42        1D+2        0.00000   0.00003  -0.00065  -0.00030   0.00000
  43        1D-2        0.00000  -0.00223  -0.00038   0.00138   0.00000
  44 10  C  1S          0.00000  -0.01893  -0.00807  -0.00681   0.00000
  45        1PX         0.00000   0.03426   0.01560  -0.02076   0.00000
  46        1PY         0.00000  -0.02174  -0.00214  -0.00214   0.00000
  47        1PZ         0.13289   0.00000   0.00000   0.00000  -0.05078
  48 11  H  1S          0.03471   0.02488   0.02082  -0.01759  -0.05562
  49 12  H  1S         -0.03471   0.02488   0.02082  -0.01759   0.05562
  50 13  H  1S          0.00000  -0.01688  -0.00923   0.01685   0.00000
                          21        22        23        24        25
  21 6   N  1S          1.71552
  22        1PX        -0.29399   1.25577
  23        1PY         0.23415  -0.17161   1.16792
  24        1PZ         0.00001   0.00001   0.00000   1.18648
  25 7   H  1S         -0.03918  -0.00201   0.00225   0.00000   0.80924
  26 8   Cl 1S         -0.00449   0.00982   0.00478   0.00000  -0.00172
  27        1PX        -0.05212   0.04719   0.03131   0.00001  -0.01925
  28        1PY        -0.07500  -0.00248   0.07754   0.00000  -0.01957
  29        1PZ        -0.00001   0.00000   0.00000  -0.12975   0.00000
  30        1D 0       -0.01692   0.00880   0.01088   0.00000  -0.00140
  31        1D+1        0.00000   0.00000   0.00000   0.01922   0.00000
  32        1D-1        0.00000   0.00000   0.00000   0.01121   0.00000
  33        1D+2       -0.00420   0.00690  -0.00982   0.00000   0.00049
  34        1D-2        0.03057  -0.01428  -0.02298   0.00000   0.00278
  35 9   Cl 1S          0.00149  -0.00173   0.00241   0.00000  -0.00212
  36        1PX        -0.01876   0.01571  -0.02586   0.00000   0.01700
  37        1PY         0.01487  -0.01023   0.02008   0.00000  -0.02739
  38        1PZ         0.00000   0.00000   0.00000   0.08770   0.00000
  39        1D 0       -0.00023  -0.00110   0.00155   0.00000  -0.00119
  40        1D+1        0.00000   0.00000   0.00000   0.00486   0.00000
  41        1D-1        0.00000   0.00000   0.00000  -0.00442   0.00000
  42        1D+2       -0.00020   0.00049  -0.00181   0.00000  -0.00109
  43        1D-2       -0.00021  -0.00096   0.00090   0.00000  -0.00179
  44 10  C  1S          0.01007   0.03918   0.00345   0.00000  -0.00929
  45        1PX        -0.01760  -0.07472  -0.00666   0.00000   0.01105
  46        1PY         0.00007  -0.01308  -0.00246   0.00000   0.00726
  47        1PZ         0.00000   0.00000   0.00000  -0.00637   0.00000
  48 11  H  1S         -0.00020  -0.00961   0.00198  -0.00027   0.00103
  49 12  H  1S         -0.00020  -0.00961   0.00198   0.00027   0.00103
  50 13  H  1S          0.00115   0.01076  -0.00485   0.00000   0.02161
                          26        27        28        29        30
  26 8   Cl 1S          1.99079
  27        1PX        -0.08691   1.16758
  28        1PY        -0.03034  -0.28267   1.88124
  29        1PZ         0.00000  -0.00003  -0.00001   1.94574
  30        1D 0        0.00056  -0.01798  -0.00630   0.00000   0.00123
  31        1D+1        0.00000   0.00000   0.00000   0.00609   0.00000
  32        1D-1        0.00000   0.00000   0.00000   0.00227   0.00000
  33        1D+2       -0.00002   0.02667   0.00670   0.00000  -0.00142
  34        1D-2        0.00000   0.01970   0.00983   0.00000  -0.00114
  35 9   Cl 1S          0.00005  -0.00203   0.00123   0.00000  -0.00010
  36        1PX         0.00210   0.04566  -0.00833   0.00000   0.00159
  37        1PY         0.00034  -0.00827   0.00906   0.00000  -0.00026
  38        1PZ         0.00000   0.00000   0.00000   0.00872   0.00000
  39        1D 0       -0.00010  -0.00167   0.00036   0.00000   0.00009
  40        1D+1        0.00000   0.00000   0.00000   0.00084   0.00000
  41        1D-1        0.00000   0.00000   0.00000  -0.00014   0.00000
  42        1D+2        0.00018   0.00295  -0.00053   0.00000  -0.00006
  43        1D-2       -0.00011  -0.00218   0.00012   0.00000   0.00010
  44 10  C  1S          0.00054   0.01165   0.00465   0.00000   0.00033
  45        1PX        -0.00115  -0.02328  -0.00889   0.00000  -0.00066
  46        1PY        -0.00033  -0.00728  -0.00137   0.00000  -0.00019
  47        1PZ         0.00000   0.00000   0.00000  -0.01033   0.00000
  48 11  H  1S         -0.00010  -0.00049  -0.00067  -0.01160  -0.00006
  49 12  H  1S         -0.00010  -0.00050  -0.00067   0.01160  -0.00006
  50 13  H  1S         -0.00007  -0.00148   0.00026   0.00000  -0.00008
                          31        32        33        34        35
  31        1D+1        0.00085
  32        1D-1        0.00029   0.00013
  33        1D+2        0.00000   0.00000   0.00243
  34        1D-2        0.00000   0.00000   0.00068   0.00213
  35 9   Cl 1S          0.00000   0.00000   0.00020  -0.00004   1.99062
  36        1PX         0.00000   0.00000  -0.00324   0.00050   0.06713
  37        1PY         0.00000   0.00000   0.00093   0.00023  -0.06227
  38        1PZ        -0.00076   0.00041   0.00000   0.00000   0.00000
  39        1D 0        0.00000   0.00000  -0.00012   0.00000   0.00039
  40        1D+1       -0.00021   0.00002   0.00000   0.00000   0.00000
  41        1D-1        0.00008  -0.00003   0.00000   0.00000   0.00000
  42        1D+2        0.00000   0.00000   0.00006  -0.00006  -0.00021
  43        1D-2        0.00000   0.00000  -0.00017  -0.00012   0.00017
  44 10  C  1S          0.00000   0.00000   0.00003  -0.00004  -0.00152
  45        1PX         0.00000   0.00000  -0.00001   0.00009   0.00014
  46        1PY         0.00000   0.00000   0.00011  -0.00019  -0.00025
  47        1PZ         0.00081   0.00029   0.00000   0.00000   0.00000
  48 11  H  1S          0.00083   0.00029  -0.00004   0.00013   0.00175
  49 12  H  1S         -0.00083  -0.00029  -0.00004   0.00013   0.00175
  50 13  H  1S          0.00000   0.00000   0.00020  -0.00015   0.00000
                          36        37        38        39        40
  36        1PX         1.50621
  37        1PY         0.44133   1.57584
  38        1PZ         0.00002  -0.00001   1.94789
  39        1D 0        0.01292  -0.01360   0.00000   0.00124
  40        1D+1        0.00000   0.00000  -0.00281   0.00000   0.00052
  41        1D-1        0.00000   0.00000   0.00650   0.00000  -0.00041
  42        1D+2       -0.00270  -0.00181   0.00000  -0.00002   0.00000
  43        1D-2        0.02689  -0.02174   0.00000   0.00168   0.00000
  44 10  C  1S         -0.00060  -0.01967   0.00000  -0.00865   0.00000
  45        1PX        -0.01858   0.01121   0.00000   0.00155   0.00000
  46        1PY        -0.00335  -0.00231   0.00000   0.00603   0.00000
  47        1PZ         0.00000   0.00000   0.00249   0.00000   0.00303
  48 11  H  1S          0.00130   0.01121   0.01825  -0.00506   0.00218
  49 12  H  1S          0.00130   0.01121  -0.01825  -0.00506  -0.00218
  50 13  H  1S          0.00724   0.00424   0.00000  -0.00051   0.00000
                          41        42        43        44        45
  41        1D-1        0.00045
  42        1D+2        0.00000   0.00170
  43        1D-2        0.00000  -0.00019   0.00297
  44 10  C  1S          0.00000  -0.01460   0.00612   1.07442
  45        1PX         0.00000   0.00317   0.00715   0.06563   0.99662
  46        1PY         0.00000   0.01016  -0.00481   0.02039  -0.06927
  47        1PZ         0.00765   0.00000   0.00000   0.00000   0.00000
  48 11  H  1S          0.00392  -0.00816   0.00609   0.51096   0.37723
  49 12  H  1S         -0.00392  -0.00816   0.00609   0.51096   0.37723
  50 13  H  1S          0.00000  -0.00039  -0.00188   0.51046  -0.01839
                          46        47        48        49        50
  46        1PY         1.15843
  47        1PZ         0.00000   1.18559
  48 11  H  1S         -0.29010   0.68586   0.82876
  49 12  H  1S         -0.29008  -0.68587   0.03164   0.82876
  50 13  H  1S          0.84026   0.00001   0.02810   0.02810   0.84070
    Full Mulliken population analysis:
                           1         2         3         4         5
   1 1   C  1S          1.10886
   2        1PX         0.00000   0.87765
   3        1PY         0.00000   0.00000   0.84099
   4        1PZ         0.00000   0.00000   0.00000   0.88854
   5 2   N  1S          0.00000   0.00000   0.00000   0.00000   1.71193
   6        1PX         0.00000   0.00000   0.00000   0.00000   0.00000
   7        1PY         0.00000   0.00000   0.00000   0.00000   0.00000
   8        1PZ         0.00000   0.00000   0.00000   0.00000   0.00000
   9 3   C  1S          0.00000   0.00000   0.00000   0.00000   0.00000
  10        1PX         0.00000   0.00000   0.00000   0.00000   0.00000
  11        1PY         0.00000   0.00000   0.00000   0.00000   0.00000
  12        1PZ         0.00000   0.00000   0.00000   0.00000   0.00000
  13 4   C  1S          0.00000   0.00000   0.00000   0.00000   0.00000
  14        1PX         0.00000   0.00000   0.00000   0.00000   0.00000
  15        1PY         0.00000   0.00000   0.00000   0.00000   0.00000
  16        1PZ         0.00000   0.00000   0.00000   0.00000   0.00000
  17 5   C  1S          0.00000   0.00000   0.00000   0.00000   0.00000
  18        1PX         0.00000   0.00000   0.00000   0.00000   0.00000
  19        1PY         0.00000   0.00000   0.00000   0.00000   0.00000
  20        1PZ         0.00000   0.00000   0.00000   0.00000   0.00000
  21 6   N  1S          0.00000   0.00000   0.00000   0.00000   0.00000
  22        1PX         0.00000   0.00000   0.00000   0.00000   0.00000
  23        1PY         0.00000   0.00000   0.00000   0.00000   0.00000
  24        1PZ         0.00000   0.00000   0.00000   0.00000   0.00000
  25 7   H  1S          0.00000   0.00000   0.00000   0.00000   0.00000
  26 8   Cl 1S          0.00000   0.00000   0.00000   0.00000   0.00000
  27        1PX         0.00000   0.00000   0.00000   0.00000   0.00000
  28        1PY         0.00000   0.00000   0.00000   0.00000   0.00000
  29        1PZ         0.00000   0.00000   0.00000   0.00000   0.00000
  30        1D 0        0.00000   0.00000   0.00000   0.00000   0.00000
  31        1D+1        0.00000   0.00000   0.00000   0.00000   0.00000
  32        1D-1        0.00000   0.00000   0.00000   0.00000   0.00000
  33        1D+2        0.00000   0.00000   0.00000   0.00000   0.00000
  34        1D-2        0.00000   0.00000   0.00000   0.00000   0.00000
  35 9   Cl 1S          0.00000   0.00000   0.00000   0.00000   0.00000
  36        1PX         0.00000   0.00000   0.00000   0.00000   0.00000
  37        1PY         0.00000   0.00000   0.00000   0.00000   0.00000
  38        1PZ         0.00000   0.00000   0.00000   0.00000   0.00000
  39        1D 0        0.00000   0.00000   0.00000   0.00000   0.00000
  40        1D+1        0.00000   0.00000   0.00000   0.00000   0.00000
  41        1D-1        0.00000   0.00000   0.00000   0.00000   0.00000
  42        1D+2        0.00000   0.00000   0.00000   0.00000   0.00000
  43        1D-2        0.00000   0.00000   0.00000   0.00000   0.00000
  44 10  C  1S          0.00000   0.00000   0.00000   0.00000   0.00000
  45        1PX         0.00000   0.00000   0.00000   0.00000   0.00000
  46        1PY         0.00000   0.00000   0.00000   0.00000   0.00000
  47        1PZ         0.00000   0.00000   0.00000   0.00000   0.00000
  48 11  H  1S          0.00000   0.00000   0.00000   0.00000   0.00000
  49 12  H  1S          0.00000   0.00000   0.00000   0.00000   0.00000
  50 13  H  1S          0.00000   0.00000   0.00000   0.00000   0.00000
                           6         7         8         9        10
   6        1PX         1.04760
   7        1PY         0.00000   1.37877
   8        1PZ         0.00000   0.00000   1.20028
   9 3   C  1S          0.00000   0.00000   0.00000   1.10996
  10        1PX         0.00000   0.00000   0.00000   0.00000   0.87985
  11        1PY         0.00000   0.00000   0.00000   0.00000   0.00000
  12        1PZ         0.00000   0.00000   0.00000   0.00000   0.00000
  13 4   C  1S          0.00000   0.00000   0.00000   0.00000   0.00000
  14        1PX         0.00000   0.00000   0.00000   0.00000   0.00000
  15        1PY         0.00000   0.00000   0.00000   0.00000   0.00000
  16        1PZ         0.00000   0.00000   0.00000   0.00000   0.00000
  17 5   C  1S          0.00000   0.00000   0.00000   0.00000   0.00000
  18        1PX         0.00000   0.00000   0.00000   0.00000   0.00000
  19        1PY         0.00000   0.00000   0.00000   0.00000   0.00000
  20        1PZ         0.00000   0.00000   0.00000   0.00000   0.00000
  21 6   N  1S          0.00000   0.00000   0.00000   0.00000   0.00000
  22        1PX         0.00000   0.00000   0.00000   0.00000   0.00000
  23        1PY         0.00000   0.00000   0.00000   0.00000   0.00000
  24        1PZ         0.00000   0.00000   0.00000   0.00000   0.00000
  25 7   H  1S          0.00000   0.00000   0.00000   0.00000   0.00000
[...]
 Vib (Bot)   10  0.361720D+00         -0.441628         -1.016885
 Vib (Bot)   11  0.245049D+00         -0.610748         -1.406299
 Vib (V=0)       0.689959D+02          1.838823          4.234047
 Vib (V=0)    1  0.274521D+01          0.438576          1.009859
 Vib (V=0)    2  0.220052D+01          0.342525          0.788694
 Vib (V=0)    3  0.183868D+01          0.264505          0.609046
 Vib (V=0)    4  0.160696D+01          0.206004          0.474341
 Vib (V=0)    5  0.142065D+01          0.152488          0.351118
 Vib (V=0)    6  0.129322D+01          0.111672          0.257134
 Vib (V=0)    7  0.116379D+01          0.065874          0.151680
 Vib (V=0)    8  0.114387D+01          0.058378          0.134420
 Vib (V=0)    9  0.114095D+01          0.057266          0.131860
 Vib (V=0)   10  0.111712D+01          0.048101          0.110757
 Vib (V=0)   11  0.105682D+01          0.024001          0.055265
 Electronic      0.100000D+01          0.000000          0.000000
 Translational   0.810266D+08          7.908628         18.210289
 Rotational      0.884086D+06          5.946494         13.692310
 ***** Axes restored to original set *****
 -------------------------------------------------------------------
 Center     Atomic                   Forces (Hartrees/Bohr)
 Number     Number              X              Y              Z
 -------------------------------------------------------------------
      1        6          -0.000425640    0.000219882   -0.000000759
      2        7           0.000370483    0.000113354    0.000000379
      3        6          -0.000199246   -0.000509703   -0.000000301
      4        6          -0.000180428    0.000406186    0.000000031
      5        6           0.000236389    0.000056447    0.000000308
      6        7           0.000002749   -0.000370821    0.000000181
      7        1          -0.000031878    0.000053648   -0.000000110
      8       17           0.000024206   -0.000000745    0.000000207
      9       17           0.000170668    0.000056434    0.000000086
     10        6           0.000021378    0.000098641    0.000000008
     11        1          -0.000023306   -0.000010056   -0.000090425
     12        1          -0.000023287   -0.000010021    0.000090414
     13        1           0.000057912   -0.000103246   -0.000000019
 -------------------------------------------------------------------
 Cartesian Forces:  Max     0.000509703 RMS     0.000171858
 FormGI is forming the generalized inverse of G from B-inverse, IUseBI=4.

 GradGradGradGradGradGradGradGradGradGradGradGradGradGradGradGradGradGrad
 Berny optimization.
 Internal  Forces:  Max     0.000289389 RMS     0.000085772
 Search for a local minimum.
 Step number   1 out of a maximum of    2
 All quantities printed in internal units (Hartrees-Bohrs-Radians)
 Second derivative matrix not updated -- analytic derivatives used.
 ITU=  0
     Eigenvalues ---    0.00101   0.01087   0.01795   0.01949   0.02257
     Eigenvalues ---    0.03730   0.04194   0.04483   0.04596   0.06346
     Eigenvalues ---    0.09322   0.10702   0.12083   0.12851   0.13182
     Eigenvalues ---    0.15315   0.15950   0.18654   0.18711   0.19259
     Eigenvalues ---    0.25784   0.25984   0.26626   0.27600   0.27976
     Eigenvalues ---    0.30002   0.31361   0.42122   0.52933   0.53606
     Eigenvalues ---    0.54863   0.56896   0.72502
 Angle between quadratic step and forces=  24.00 degrees.
 Linear search not attempted -- first point.
 Iteration  1 RMS(Cart)=  0.00060107 RMS(Int)=  0.00000029
 Iteration  2 RMS(Cart)=  0.00000037 RMS(Int)=  0.00000003
 Variable       Old X    -DE/DX   Delta X   Delta X   Delta X     New X
                                 (Linear)    (Quad)   (Total)
    R1        2.58625   0.00028   0.00000   0.00174   0.00174   2.58799
    R2        2.58288  -0.00022   0.00000  -0.00161  -0.00161   2.58127
    R3        3.23023  -0.00001   0.00000  -0.00005  -0.00005   3.23017
    R4        2.56181  -0.00018   0.00000  -0.00151  -0.00151   2.56030
    R5        2.67112   0.00029   0.00000   0.00165   0.00165   2.67277
    R6        3.23665   0.00017   0.00000   0.00085   0.00085   3.23749
    R7        2.66534  -0.00007   0.00000  -0.00119  -0.00119   2.66416
    R8        2.80198  -0.00001   0.00000  -0.00009  -0.00009   2.80189
    R9        2.56563   0.00023   0.00000   0.00137   0.00137   2.56700
   R10        2.07688   0.00006   0.00000   0.00021   0.00021   2.07709
   R11        2.08516  -0.00009   0.00000  -0.00028  -0.00028   2.08488
   R12        2.08516  -0.00009   0.00000  -0.00028  -0.00028   2.08488
   R13        2.07646  -0.00012   0.00000  -0.00041  -0.00041   2.07604
    A1        2.18973   0.00003   0.00000   0.00004   0.00004   2.18977
    A2        2.04258  -0.00005   0.00000  -0.00090  -0.00090   2.04168
    A3        2.05088   0.00002   0.00000   0.00086   0.00086   2.05174
    A4        2.02661  -0.00004   0.00000  -0.00036  -0.00036   2.02625
    A5        2.15052   0.00006   0.00000   0.00061   0.00061   2.15113
    A6        2.04632   0.00005   0.00000   0.00064   0.00064   2.04696
    A7        2.08634  -0.00011   0.00000  -0.00125  -0.00125   2.08509
    A8        2.02221  -0.00009   0.00000  -0.00059  -0.00059   2.02162
    A9        2.11821   0.00000   0.00000  -0.00031  -0.00031   2.11790
   A10        2.14276   0.00009   0.00000   0.00090   0.00090   2.14366
   A11        2.13871   0.00004   0.00000   0.00023   0.00023   2.13894
   A12        2.11970  -0.00003   0.00000   0.00041   0.00041   2.12011
   A13        2.02477  -0.00001   0.00000  -0.00064  -0.00064   2.02413
   A14        2.03858  -0.00001   0.00000   0.00008   0.00008   2.03866
   A15        1.94269   0.00002   0.00000   0.00013   0.00013   1.94282
   A16        1.94269   0.00002   0.00000   0.00013   0.00013   1.94282
   A17        1.97278  -0.00003   0.00000  -0.00024  -0.00024   1.97254
   A18        1.86022  -0.00004   0.00000  -0.00056  -0.00056   1.85966
   A19        1.86984   0.00001   0.00000   0.00027   0.00027   1.87011
   A20        1.86984   0.00001   0.00000   0.00027   0.00027   1.87011
    D1        0.00000   0.00000   0.00000   0.00000   0.00000   0.00000
    D2        3.14159   0.00000   0.00000   0.00000   0.00000   3.14159
    D3        0.00000   0.00000   0.00000   0.00000   0.00000   0.00000
    D4       -3.14159   0.00000   0.00000   0.00000   0.00000   3.14159
    D5        0.00000   0.00000   0.00000   0.00000   0.00000   0.00000
    D6       -3.14159   0.00000   0.00000   0.00000   0.00000  -3.14159
    D7        0.00000   0.00000   0.00000   0.00000   0.00000   0.00000
    D8       -3.14159   0.00000   0.00000   0.00000   0.00000   3.14159
    D9        3.14159   0.00000   0.00000   0.00000   0.00000   3.14159
   D10        0.00000   0.00000   0.00000   0.00000   0.00000   0.00000
   D11        0.00000   0.00000   0.00000   0.00000   0.00000   0.00000
   D12        3.14159   0.00000   0.00000   0.00000   0.00000   3.14159
   D13       -3.14159   0.00000   0.00000   0.00000   0.00000  -3.14159
   D14        0.00000   0.00000   0.00000   0.00000   0.00000   0.00000
   D15       -1.03626   0.00001   0.00000   0.00026   0.00026  -1.03600
   D16        1.03627  -0.00001   0.00000  -0.00027  -0.00027   1.03600
   D17       -3.14159   0.00000   0.00000  -0.00001  -0.00001   3.14159
   D18        2.10533   0.00001   0.00000   0.00026   0.00026   2.10559
   D19       -2.10532  -0.00001   0.00000  -0.00027  -0.00027  -2.10559
   D20        0.00001   0.00000   0.00000  -0.00001  -0.00001   0.00000
   D21        0.00000   0.00000   0.00000   0.00000   0.00000   0.00000
   D22       -3.14159   0.00000   0.00000   0.00000   0.00000  -3.14159
         Item               Value     Threshold  Converged?
 Maximum Force            0.000289     0.000450     YES
 RMS     Force            0.000086     0.000300     YES
 Maximum Displacement     0.002119     0.001800     NO 
 RMS     Displacement     0.000601     0.001200     YES
 Predicted change in Energy=-1.354197D-06
 GradGradGradGradGradGradGradGradGradGradGradGradGradGradGradGradGradGrad

 1|1|UNPC-DESKTOP-KC5UJLK|Freq|RPM6|ZDO|C5H4Cl2N2|23122|15-Mar-2022|0||
 #N Geom=AllCheck Guess=TCheck SCRF=Check GenChk RPM6/ZDO Freq||Energy 
 Calculation(GC)||0,1|C,-2.0295945175,-1.0347003359,-0.0000100786|N,-0.
 6611432676,-1.0155631092,-0.0000155041|C,-0.0814719634,0.2099038896,-0
 .0000097593|C,-0.8193679498,1.415509185,-0.0000024224|C,-2.2230635233,
 1.2777595562,-0.0000013358|N,-2.8380529093,0.067360855,-0.0000050449|H
 ,-2.8853197484,2.1548574524,0.0000048997|Cl,-2.7850868645,-2.568045718
 ,-0.0000223526|Cl,1.6303150002,0.2676002356,-0.0000177672|C,-0.1423779
 528,2.7346793847,0.0000028379|H,0.506622728,2.8522892323,0.8845946687|
 H,0.5066109829,2.8523015136,-0.8845959462|H,-0.8457588244,3.5788624187
 ,0.0000137449||Version=IA32W-G09RevD.01|State=1-A|HF=0.0421229|RMSD=7.
 686e-010|RMSF=1.719e-004|ZeroPoint=0.0794308|Thermal=0.0876671|Dipole=
 0.3037171,1.4800374,0.0000078|DipoleDeriv=0.8587376,0.618305,0.0000026
 ,0.7906609,1.7612608,0.0000084,0.0000045,0.0000109,0.262469,-0.7626193
 ,-0.3563271,-0.0000013,-0.1877401,-0.8081613,-0.0000016,0.0000008,-0.0
 000033,-0.3453014,1.8565663,0.1368601,-0.0000051,-0.308055,0.5231539,0
 .0000017,-0.0000082,0.0000021,0.2151347,-0.8675551,0.3038949,0.0000034
 ,0.4314556,0.1281753,-0.0000004,0.0000042,-0.0000005,-0.0107768,0.6724
 286,-0.0570522,-0.0000008,0.5575567,-0.0343873,-0.0000016,0.0000015,0.
 ,0.0748353,-0.6121205,0.0659139,0.0000011,-0.5436028,-0.7883345,-0.000
 0023,-0.0000028,-0.0000029,-0.3601609,0.2154856,-0.1869073,-0.0000012,
 -0.1822355,0.2630164,0.0000011,-0.0000007,0.0000009,0.1415749,-0.28762
 6,-0.3973021,-0.0000023,-0.4540861,-0.8491432,-0.0000051,-0.0000036,-0
 .0000073,0.0097533,-1.0936686,-0.0512941,0.0000037,-0.0360662,-0.12053
 83,0.,0.0000046,0.,-0.0331119,-0.5471026,-0.1618857,-0.000001,-0.08123
 11,-0.6981162,0.,-0.0000005,0.000001,-0.6353315,0.2071655,0.053493,0.0
 243668,0.0187679,0.1807386,0.0220451,0.0324669,0.0490137,0.2377853,0.2
 071647,0.0534926,-0.0243661,0.0187679,0.1807393,-0.0220458,-0.0324666,
 -0.0490154,0.2377851,0.1531443,-0.0212214,0.,-0.0241711,0.261584,0.000
 0006,-0.0000001,0.0000005,0.2053154|Polar=108.3757551,21.1344734,106.6
 554892,-0.0001093,0.000402,20.4948537|HyperPolar=-330.6687996,76.25079
 08,199.9105493,238.1048098,0.0016329,0.0013625,0.0019445,11.347211,20.
 1747878,0.0003817|PG=C01 [X(C5H4Cl2N2)]|NImag=0||0.55472812,-0.0025988
 9,0.55609397,-0.00000094,0.00000206,0.13847014,-0.28721067,-0.03957469
 ,0.00000095,0.58327227,0.06835698,-0.08499618,-0.00000034,0.10518779,0
 .51328699,0.00000139,-0.00000008,-0.06100575,-0.00000116,0.00000236,0.
 06952364,-0.06274758,-0.05782137,-0.00000017,-0.11360162,-0.12339525,-
 0.00000053,0.54496066,-0.16802191,0.04512001,0.00000072,-0.03832339,-0
 .30977120,-0.00000152,0.00899615,0.61861560,-0.00000071,0.00000047,0.0
 0261662,-0.00000011,-0.00000127,-0.05614121,-0.00000118,0.00000255,0.1
 2892296,-0.09875204,0.04972865,0.00000047,0.09586847,0.05246766,0.0000
 0005,-0.12766052,0.03713289,0.00000021,0.65558508,0.04463449,-0.030800
 21,-0.00000028,-0.04776148,-0.10260987,-0.00000046,0.14865813,-0.22055
 493,-0.00000105,0.04541319,0.69214203,0.00000041,-0.00000022,-0.006321
 36,-0.00000038,-0.00000071,0.01530676,0.00000086,-0.00000085,-0.064994
 97,-0.00000062,0.00000265,0.15171293,0.11394158,-0.03920107,-0.0000004
 3,-0.08830034,-0.04612496,0.,-0.05525044,0.12847254,0.00000081,-0.2856
 8286,-0.06924533,-0.00000016,0.59821866,0.08341409,-0.12258426,-0.0000
 0075,-0.06519186,-0.04219152,0.,0.02165185,0.06837690,0.00000034,0.055
 24092,-0.08745054,-0.00000023,0.00746297,0.62285508,0.00000018,-0.0000
 0045,0.00420372,-0.00000013,-0.00000008,-0.00310873,0.00000019,0.00000
 004,0.00447746,0.00000045,0.00000002,-0.06561174,-0.00000071,0.0000020
 8,0.14893937,-0.17599573,0.15435748,0.00000064,-0.08404800,0.02344532,
 0.00000039,-0.00240761,0.01706206,0.00000008,-0.03948945,-0.04287746,-
 0.00000011,-0.15566468,-0.16402948,-0.00000051,0.44507787,0.04184356,-
 0.20481674,-0.00000027,0.16053398,0.05946385,-0.00000025,0.00275905,-0
 .12821404,-0.00000071,-0.15399043,0.02724678,0.00000039,-0.05238267,-0
 .27822935,-0.00000073,0.00692337,0.64796479,0.00000018,-0.00000067,-0.
 06490973,0.00000097,0.00000008,0.02714901,0.00000002,-0.00000057,-0.00
 355006,-0.00000056,0.00000013,0.01651310,-0.00000006,-0.00000055,-0.05
 874292,-0.00000051,0.00000233,0.07426244,-0.00047422,-0.00114807,0.000
 00001,-0.00031250,-0.00107814,-0.00000001,-0.00322457,0.00058604,0.000
 00003,-0.03209741,0.02022672,0.00000016,-0.09875550,0.08745863,0.00000
 057,0.00967196,-0.00386628,-0.00000002,0.12647437,-0.00354704,-0.00403
 684,-0.00000006,0.00045659,0.00107918,0.00000002,0.00093100,-0.0018646
 5,-0.00000005,0.00658248,0.00359778,-0.00000003,0.08805557,-0.14148967
 ,-0.00000073,0.00974348,-0.04953416,-0.00000023,-0.10090352,0.19280955
 ,0.00000004,-0.00000007,0.00858512,-0.00000004,0.,-0.00245815,0.000000
 02,-0.00000001,0.00621737,0.00000012,-0.00000006,0.00695067,0.00000057
 ,-0.00000076,-0.04310831,0.00000004,-0.00000020,0.00175874,-0.00000073
 ,0.00000107,0.02388618,-0.04892918,-0.06579194,-0.00000055,-0.04424372
 ,-0.04309356,-0.00000020,-0.00242083,0.00341201,0.00000004,0.00102334,
 -0.00029414,0.,-0.00163585,0.00090682,0.00000001,0.00818492,-0.0001782
 7,-0.00000002,-0.00006165,0.00046698,0.,0.09000098,-0.06514953,-0.1511
 6245,-0.00000103,-0.04062097,-0.02453576,-0.00000012,0.00294568,0.0013
 7391,-0.00000004,-0.00096931,0.00105503,0.,0.00641916,-0.00131654,-0.0
 0000005,-0.00441083,-0.07680141,-0.00000050,-0.00123891,-0.00030680,0.
 ,0.10575270,0.25238783,-0.00000051,-0.00000100,-0.02717026,-0.00000022
 ,-0.00000013,0.00333749,0.00000006,-0.00000002,0.00500466,0.,0.,0.0001
 8317,0.00000003,-0.00000004,0.00484914,-0.00000005,-0.00000052,0.00371
 179,-0.00000001,0.,-0.00031363,0.00000071,0.00000170,0.01147414,0.0052
 4337,0.00172130,0.00000001,-0.06114769,-0.03909774,0.00000004,-0.18354
 443,0.00799774,0.00000083,-0.05487083,0.01769968,0.00000032,0.00296584
 ,0.00610774,0.00000004,-0.00235927,-0.00183010,0.,-0.00023910,-0.00110
 531,-0.00000001,-0.00188376,-0.00249513,-0.00000002,0.29680168,0.00045
 542,-0.00368312,-0.00000007,-0.03676228,-0.00860844,0.00000010,0.00003
 550,-0.01870632,0.00000004,0.02423760,-0.00436897,-0.00000014,0.000805
 20,-0.00214020,-0.00000003,-0.00058041,0.00091439,0.00000001,0.0003470
 8,0.00011840,0.,-0.00095643,-0.00036373,0.,0.00915396,0.04078410,-0.00
 000003,-0.00000006,0.00611817,0.00000009,0.00000013,0.00222199,0.00000
 077,-0.00000004,-0.02618561,0.00000035,-0.00000009,0.00602053,0.000000
 02,-0.00000005,0.00423763,0.00000001,0.,-0.00197182,0.,0.,-0.00066418,
 0.,0.00000001,-0.00016899,-0.00000123,0.00000013,0.01123779,0.00075178
 ,0.00075711,0.00000001,-0.00010340,0.00370580,0.00000002,0.00270781,0.
 00314732,0.00000003,-0.09240546,-0.07754090,-0.00000034,-0.03083117,-0
 .03096066,-0.00000009,-0.00210233,0.00075010,0.00000001,-0.00045763,0.
 00000974,0.,-0.00014350,-0.00066028,-0.00000001,0.00147512,0.00276918,
 0.,0.42145417,0.00126463,0.00198606,0.00000003,0.00116386,-0.00181208,
 -0.00000004,-0.00132168,-0.04841922,-0.00000025,-0.08292102,-0.2128512
 9,-0.00000060,-0.02148979,-0.01101566,-0.00000004,0.00020581,0.0012414
 2,-0.00000003,0.00033144,-0.00066315,0.,-0.00055417,-0.00089752,0.,0.0
 0084449,-0.00200846,-0.00000001,0.02842251,0.48487360,0.,0.00000002,-0
 .00093001,0.00000002,-0.00000006,0.00543174,0.,-0.00000023,0.00209826,
 -0.00000040,-0.00000069,-0.05876747,-0.00000002,0.,0.00374106,0.,-0.00
 000005,0.00617982,0.,0.,-0.00131555,0.,0.,-0.00089351,0.,-0.00000002,-
 0.00023913,0.00000007,0.00000063,0.38000980,-0.00032767,-0.00031257,-0
 .00005886,-0.00013793,0.00001561,0.00029386,0.00198117,0.00063470,-0.0
 0019400,-0.01482147,-0.01644088,-0.01379208,0.00036460,-0.00033905,-0.
 00025044,-0.00035886,-0.00027754,0.00048124,-0.00007057,-0.00006714,-0
 .00013685,0.00008631,0.00023635,-0.00006161,-0.00113060,0.00019632,-0.
 00001864,-0.09418279,-0.00959423,-0.08556286,0.11414595,-0.00023053,-0
 .00022601,-0.00008927,0.00030443,0.00057802,0.00064339,-0.00135156,-0.
 00188296,-0.00075006,-0.02121088,-0.01303970,-0.02012883,-0.00094166,-
 0.00170299,-0.00008770,-0.00008274,0.00012445,0.00076798,0.00004237,0.
 00009225,-0.00009463,0.00008659,0.00011475,-0.00011338,0.00070826,-0.0
 0100842,-0.00033769,-0.00943162,-0.03516056,-0.01397789,0.02025135,0.0
 4756114,-0.00017464,-0.00043323,0.00009983,-0.00000511,0.00023324,-0.0
 0010447,0.00045405,-0.00043438,0.00046059,-0.00861863,-0.00940774,-0.0
 0201542,0.00010779,0.00034861,-0.00009180,0.00018540,0.00021125,-0.000
 13293,-0.00006422,0.00009517,0.00009832,0.00010203,0.00020592,0.,0.000
 10863,-0.00055826,-0.00032053,-0.08668444,-0.01517343,-0.15054666,0.10
 807565,0.02202050,0.17871805,-0.00032767,-0.00031257,0.00005885,-0.000
 13793,0.00001561,-0.00029385,0.00198116,0.00063471,0.00019398,-0.01482
 118,-0.01644098,0.01379202,0.00036459,-0.00033906,0.00025043,-0.000358
 86,-0.00027753,-0.00048124,-0.00007057,-0.00006714,0.00013685,0.000086
 30,0.00023634,0.00006161,-0.00113059,0.00019631,0.00001865,-0.09418051
 ,-0.00959520,0.08556200,0.00723202,0.00024725,-0.00680418,0.11414309,-
 0.00023053,-0.00022602,0.00008926,0.00030442,0.00057803,-0.00064339,-0
 .00135153,-0.00188296,0.00075004,-0.02121075,-0.01304014,0.02012894,-0
 .00094165,-0.00170297,0.00008769,-0.00008274,0.00012447,-0.00076799,0.
 00004237,0.00009225,0.00009463,0.00008659,0.00011475,0.00011339,0.0007
 0824,-0.00100838,0.00033766,-0.00943266,-0.03516094,0.01397966,0.00024
 715,0.00394426,-0.00034029,0.02025260,0.04756167,0.00017464,0.00043323
 ,0.00009984,0.00000511,-0.00023323,-0.00010448,-0.00045408,0.00043433,
 0.00046060,0.00861851,0.00940783,-0.00201529,-0.00010781,-0.00034863,-
 0.00009181,-0.00018540,-0.00021124,-0.00013294,0.00006422,-0.00009517,
 0.00009832,-0.00010203,-0.00020592,-0.00000001,-0.00010860,0.00055823,
 -0.00032051,0.08668356,0.01517515,-0.15054853,0.00680376,0.00034070,-0
 .02494018,-0.10807453,-0.02202260,0.17872030,0.00010162,0.00019642,0.,
 0.00010227,-0.00040492,0.,-0.00077240,-0.00172992,0.,0.00812427,-0.006
 02994,-0.00000008,0.00026492,-0.00138490,0.,-0.00015059,-0.00000575,0.
 ,-0.00038261,-0.00055573,0.,-0.00006349,-0.00004544,0.,-0.00017946,0.0
 0010211,0.,-0.11198323,0.09324221,0.00000121,-0.01278008,0.01160885,-0
 .00668225,-0.01277978,0.01160860,0.00668256,0.13049903,-0.00019305,-0.
 00066692,0.,0.00028645,-0.00045954,0.,-0.00073553,-0.00219320,-0.00000
 002,0.00949603,-0.03932530,-0.00000037,-0.00088526,-0.00140650,-0.0000
 0001,0.00032578,0.00051220,0.,-0.00079985,0.00010583,0.,0.00015639,0.0
 0033836,0.,-0.00041342,0.00007964,0.,0.08846475,-0.14011215,-0.0000013
 7,0.00544988,0.00060579,0.00323267,0.00544960,0.00060601,-0.00323271,-
 0.10660175,0.18191588,0.,0.,0.00014244,0.,0.,-0.00004593,0.,-0.0000000
 1,0.00061128,0.00000004,-0.00000026,0.00304115,-0.00000001,-0.00000001
 ,0.00030630,0.,0.,-0.00013478,0.,0.,0.00026500,0.,0.,-0.00001374,0.,0.
 ,0.00003467,0.00000116,-0.00000140,-0.03421995,-0.01557920,0.01180681,
 -0.00122466,0.01557943,-0.01180695,-0.00122517,-0.00000142,0.00000181,
 0.03246327||0.00042564,-0.00021988,0.00000076,-0.00037048,-0.00011335,
 -0.00000038,0.00019925,0.00050970,0.00000030,0.00018043,-0.00040619,-0
 .00000003,-0.00023639,-0.00005645,-0.00000031,-0.00000275,0.00037082,-
 0.00000018,0.00003188,-0.00005365,0.00000011,-0.00002421,0.00000075,-0
 .00000021,-0.00017067,-0.00005643,-0.00000009,-0.00002138,-0.00009864,
 0.,0.00002331,0.00001006,0.00009042,0.00002329,0.00001002,-0.00009041,
 -0.00005791,0.00010325,0.00000002|||@


 A SCIENTIST IS SOMEONE WHOSE CURIOSITY SURVIVES
 EDUCATION'S ASSAULTS ON IT.
                          - SIR HERMANN BONDI
 Job cpu time:       0 days  0 hours  0 minutes  6.0 seconds.
 File lengths (MBytes):  RWF=     16 Int=      0 D2E=      0 Chk=      2 Scr=      1
 Normal termination of Gaussian 09 at Tue Mar 15 10:01:40 2022.
