 Entering Link 1 = C:\G09W\l1.exe PID=      6888.
  
 Copyright (c) 1988,1990,1992,1993,1995,1998,2003,2009,2013,
            Gaussian, Inc.  All Rights Reserved.
  
 This is part of the Gaussian(R) 09 program.  It is based on
 the Gaussian(R) 03 system (copyright 2003, Gaussian, Inc.),
 the Gaussian(R) 98 system (copyright 1998, Gaussian, Inc.),
 the Gaussian(R) 94 system (copyright 1995, Gaussian, Inc.),
 the Gaussian 92(TM) system (copyright 1992, Gaussian, Inc.),
 the Gaussian 90(TM) system (copyright 1990, Gaussian, Inc.),
 the Gaussian 88(TM) system (copyright 1988, Gaussian, Inc.),
 the Gaussian 86(TM) system (copyright 1986, Carnegie Mellon
 University), and the Gaussian 82(TM) system (copyright 1983,
 Carnegie Mellon University). Gaussian is a federally registered
 trademark of Gaussian, Inc.
  
 This software contains proprietary and confidential information,
 including trade secrets, belonging to Gaussian, Inc.
  
 This software is provided under written license and may be
 used, copied, transmitted, or stored only in accord with that
 written license.
  
 The following legend is applicable only to US Government
 contracts under FAR:
  
                    RESTRICTED RIGHTS LEGEND
  
 Use, reproduction and disclosure by the US Government is
 subject to restrictions as set forth in subparagraphs (a)
 and (c) of the Commercial Computer Software - Restricted
 Rights clause in FAR 52.227-19.
  
 Gaussian, Inc.
 340 Quinnipiac St., Bldg. 40, Wallingford CT 06492
  
  
 ---------------------------------------------------------------
 Warning -- This program may not be used in any manner that
 competes with the business of Gaussian, Inc. or will provide
 assistance to any competitor of Gaussian, Inc.  The licensee
 of this program is prohibited from giving any competitor of
 Gaussian, Inc. access to this program.  By using this program,
 the user acknowledges that Gaussian, Inc. is engaged in the
 business of creating and licensing software in the field of
 computational chemistry and represents and warrants to the
 licensee that it is not a competitor of Gaussian, Inc. and that
 it will not use this program in any manner prohibited above.
 ---------------------------------------------------------------
  

 Cite this work as:
 Gaussian 09, Revision D.01,
 M. J. Frisch, G. W. Trucks, H. B. Schlegel, G. E. Scuseria, 
 M. A. Robb, J. R. Cheeseman, G. Scalmani, V. Barone, B. Mennucci, 
 G. A. Petersson, H. Nakatsuji, M. Caricato, X. Li, H. P. Hratchian, 
 A. F. Izmaylov, J. Bloino, G. Zheng, J. L. Sonnenberg, M. Hada, 
 M. Ehara, K. Toyota, R. Fukuda, J. Hasegawa, M. Ishida, T. Nakajima, 
 Y. Honda, O. Kitao, H. Nakai, T. Vreven, J. A. Montgomery, Jr., 
 J. E. Peralta, F. Ogliaro, M. Bearpark, J. J. Heyd, E. Brothers, 
 K. N. Kudin, V. N. Staroverov, T. Keith, R. Kobayashi, J. Normand, 
 K. Raghavachari, A. Rendell, J. C. Burant, S. S. Iyengar, J. Tomasi, 
 M. Cossi, N. Rega, J. M. Millam, M. Klene, J. E. Knox, J. B. Cross, 
 V. Bakken, C. Adamo, J. Jaramillo, R. Gomperts, R. E. Stratmann, 
 O. Yazyev, A. J. Austin, R. Cammi, C. Pomelli, J. W. Ochterski, 
 R. L. Martin, K. Morokuma, V. G. Zakrzewski, G. A. Voth, 
 P. Salvador, J. J. Dannenberg, S. Dapprich, A. D. Daniels, 
 O. Farkas, J. B. Foresman, J. V. Ortiz, J. Cioslowski, 
 and D. J. Fox, Gaussian, Inc., Wallingford CT, 2013.
 
 ******************************************
 Gaussian 09:  IA32W-G09RevD.01 24-Apr-2013
                01-Apr-2022 
 ******************************************
 %nprocshared=4
 Will use up to    4 processors via shared memory.
 %mem=1GB
 %chk=D:\mindmap\gaussian\calculate\opt_freq\QM1\QM1.chk
 -----------------------------------------
 # opt freq b3lyp/sto-3g geom=connectivity
 -----------------------------------------
 1/14=-1,18=20,19=15,26=3,38=1,57=2/1,3;
 2/9=110,12=2,17=6,18=5,40=1/2;
 3/6=3,11=2,16=1,25=1,30=1,71=1,74=-5/1,2,3;
 4//1;
 5/5=2,38=5/2;
 6/7=2,8=2,9=2,10=2,28=1/1;
 7//1,2,3,16;
 1/14=-1,18=20,19=15,26=3/3(2);
 2/9=110/2;
 99//99;
 2/9=110/2;
 3/6=3,11=2,16=1,25=1,30=1,71=1,74=-5/1,2,3;
 4/5=5,16=3,69=1/1;
 5/5=2,38=5/2;
 7//1,2,3,16;
 1/14=-1,18=20,19=15,26=3/3(-5);
 2/9=110/2;
 6/7=2,8=2,9=2,10=2,19=2,28=1/1;
 99/9=1/99;
 ----------------------
 Energy Calculation(GC)
 ----------------------
 Symbolic Z-matrix:
 Charge =  0 Multiplicity = 1
 C                    -1.4104    0.08457   0. 
 N                    -0.43264  -0.86232   0. 
 C                     0.83472  -0.39869   0. 
 C                     1.13303   0.97771   0. 
 C                     0.03969   1.86541   0. 
 N                    -1.23931   1.43492   0. 
 H                     0.18768   2.9601    0. 
 Cl                   -3.07099  -0.49857   0. 
 Cl                    2.1092   -1.61248   0. 
 C                     2.58607   1.4879    0. 
 H                     3.0897    1.13014   0.87365 
 H                     3.0897    1.13014  -0.87365 
 H                     2.58838   2.5579    0. 
 

 GradGradGradGradGradGradGradGradGradGradGradGradGradGradGradGradGradGrad
 Berny optimization.
 Initialization pass.
                           ----------------------------
                           !    Initial Parameters    !
                           ! (Angstroms and Degrees)  !
 --------------------------                            --------------------------
 ! Name  Definition              Value          Derivative Info.                !
 --------------------------------------------------------------------------------
 ! R1    R(1,2)                  1.3611         estimate D2E/DX2                !
 ! R2    R(1,6)                  1.3611         estimate D2E/DX2                !
 ! R3    R(1,8)                  1.76           estimate D2E/DX2                !
 ! R4    R(2,3)                  1.3495         estimate D2E/DX2                !
 ! R5    R(3,4)                  1.4084         estimate D2E/DX2                !
 ! R6    R(3,9)                  1.76           estimate D2E/DX2                !
 ! R7    R(4,5)                  1.4083         estimate D2E/DX2                !
 ! R8    R(4,10)                 1.54           estimate D2E/DX2                !
 ! R9    R(5,6)                  1.3495         estimate D2E/DX2                !
 ! R10   R(5,7)                  1.1046         estimate D2E/DX2                !
 ! R11   R(10,11)                1.07           estimate D2E/DX2                !
 ! R12   R(10,12)                1.07           estimate D2E/DX2                !
 ! R13   R(10,13)                1.07           estimate D2E/DX2                !
 ! A1    A(2,1,6)              126.8598         estimate D2E/DX2                !
 ! A2    A(2,1,8)              116.5695         estimate D2E/DX2                !
 ! A3    A(6,1,8)              116.5707         estimate D2E/DX2                !
 ! A4    A(1,2,3)              115.8253         estimate D2E/DX2                !
 ! A5    A(2,3,4)              122.3225         estimate D2E/DX2                !
 ! A6    A(2,3,9)              116.3034         estimate D2E/DX2                !
 ! A7    A(4,3,9)              121.3741         estimate D2E/DX2                !
 ! A8    A(3,4,5)              116.8447         estimate D2E/DX2                !
 ! A9    A(3,4,10)             121.576          estimate D2E/DX2                !
 ! A10   A(5,4,10)             121.5794         estimate D2E/DX2                !
 ! A11   A(4,5,6)              122.3238         estimate D2E/DX2                !
 ! A12   A(4,5,7)              121.374          estimate D2E/DX2                !
 ! A13   A(6,5,7)              116.3023         estimate D2E/DX2                !
 ! A14   A(1,6,5)              115.824          estimate D2E/DX2                !
 ! A15   A(4,10,11)            109.4713         estimate D2E/DX2                !
 ! A16   A(4,10,12)            109.4713         estimate D2E/DX2                !
 ! A17   A(4,10,13)            109.4712         estimate D2E/DX2                !
 ! A18   A(11,10,12)           109.4706         estimate D2E/DX2                !
 ! A19   A(11,10,13)           109.4714         estimate D2E/DX2                !
 ! A20   A(12,10,13)           109.4714         estimate D2E/DX2                !
 ! D1    D(6,1,2,3)              0.0            estimate D2E/DX2                !
 ! D2    D(8,1,2,3)            180.0            estimate D2E/DX2                !
 ! D3    D(2,1,6,5)              0.0            estimate D2E/DX2                !
 ! D4    D(8,1,6,5)            180.0            estimate D2E/DX2                !
 ! D5    D(1,2,3,4)              0.0            estimate D2E/DX2                !
 ! D6    D(1,2,3,9)            180.0            estimate D2E/DX2                !
 ! D7    D(2,3,4,5)              0.0            estimate D2E/DX2                !
 ! D8    D(2,3,4,10)           180.0            estimate D2E/DX2                !
 ! D9    D(9,3,4,5)            180.0            estimate D2E/DX2                !
 ! D10   D(9,3,4,10)             0.0            estimate D2E/DX2                !
 ! D11   D(3,4,5,6)              0.0            estimate D2E/DX2                !
 ! D12   D(3,4,5,7)            180.0            estimate D2E/DX2                !
 ! D13   D(10,4,5,6)           180.0            estimate D2E/DX2                !
 ! D14   D(10,4,5,7)             0.0            estimate D2E/DX2                !
 ! D15   D(3,4,10,11)          -59.9997         estimate D2E/DX2                !
 ! D16   D(3,4,10,12)           59.9997         estimate D2E/DX2                !
 ! D17   D(3,4,10,13)          180.0            estimate D2E/DX2                !
 ! D18   D(5,4,10,11)          120.0003         estimate D2E/DX2                !
 ! D19   D(5,4,10,12)         -120.0003         estimate D2E/DX2                !
 ! D20   D(5,4,10,13)            0.0            estimate D2E/DX2                !
 ! D21   D(4,5,6,1)              0.0            estimate D2E/DX2                !
 ! D22   D(7,5,6,1)            180.0            estimate D2E/DX2                !
 --------------------------------------------------------------------------------
 Trust Radius=3.00D-01 FncErr=1.00D-07 GrdErr=1.00D-06
 Number of steps in this run=     65 maximum allowed number of steps=    100.
 GradGradGradGradGradGradGradGradGradGradGradGradGradGradGradGradGradGrad

                          Input orientation:                          
 ---------------------------------------------------------------------
 Center     Atomic      Atomic             Coordinates (Angstroms)
 Number     Number       Type             X           Y           Z
 ---------------------------------------------------------------------
      1          6           0       -1.410404    0.084567    0.000000
      2          7           0       -0.432644   -0.862319    0.000000
      3          6           0        0.834720   -0.398686    0.000000
      4          6           0        1.133033    0.977715    0.000000
      5          6           0        0.039686    1.865413    0.000000
      6          7           0       -1.239308    1.434916    0.000000
      7          1           0        0.187683    2.960096    0.000000
      8         17           0       -3.070990   -0.498574    0.000000
      9         17           0        2.109202   -1.612480    0.000000
     10          6           0        2.586067    1.487903    0.000000
     11          1           0        3.089698    1.130143    0.873646
     12          1           0        3.089698    1.130143   -0.873646
     13          1           0        2.588383    2.557901    0.000000
 ---------------------------------------------------------------------
                    Distance matrix (angstroms):
                    1          2          3          4          5
     1  C    0.000000
     2  N    1.361105   0.000000
     3  C    2.296544   1.349507   0.000000
     4  C    2.695697   2.416003   1.408357   0.000000
     5  C    2.296557   2.768324   2.399631   1.408338   0.000000
     6  N    1.361145   2.434747   2.768337   2.415995   1.349501
     7  H    3.289764   3.872423   3.420537   2.196252   1.104642
     8  Cl   1.760000   2.663302   3.906987   4.455697   3.907012
     9  Cl   3.907377   2.650231   1.760000   2.768035   4.047053
    10  C    4.235697   3.825724   2.574186   1.540000   2.574212
    11  H    4.701851   4.140056   2.861032   2.148263   3.256756
    12  H    4.701851   4.140056   2.861032   2.148263   3.256756
    13  H    4.701881   4.563388   3.437549   2.148263   2.641098
                    6          7          8          9         10
     6  N    0.000000
     7  H    2.088654   0.000000
     8  Cl   2.663352   4.751983   0.000000
     9  Cl   4.527598   4.959908   5.298602   0.000000
    10  C    3.825741   2.814178   5.995697   3.136842   0.000000
    11  H    4.426786   3.540294   6.431956   3.040824   1.069998
    12  H    4.426786   3.540294   6.431956   3.040824   1.069998
    13  H    3.989024   2.434158   6.431994   4.197820   1.070000
                   11         12         13
    11  H    0.000000
    12  H    1.747293   0.000000
    13  H    1.747303   1.747303   0.000000
 Stoichiometry    C5H4Cl2N2
 Framework group  CS[SG(C5H2Cl2N2),X(H2)]
 Deg. of freedom    22
 Full point group                 CS      NOp   2
 Largest Abelian subgroup         CS      NOp   2
 Largest concise Abelian subgroup CS      NOp   2
                         Standard orientation:                         
 ---------------------------------------------------------------------
 Center     Atomic      Atomic             Coordinates (Angstroms)
 Number     Number       Type             X           Y           Z
 ---------------------------------------------------------------------
      1          6           0        0.531562   -1.309134    0.000000
      2          7           0        0.964585   -0.018747    0.000000
      3          6           0        0.000000    0.925045    0.000000
      4          6           0       -1.370574    0.601012    0.000000
      5          6           0       -1.700371   -0.768166    0.000000
      6          7           0       -0.760674   -1.736733    0.000000
      7          1           0       -2.751950   -1.106419    0.000000
      8         17           0        1.773462   -2.556246    0.000000
      9         17           0        0.545984    2.598216    0.000000
     10          6           0       -2.457191    1.692279    0.000000
     11          1           0       -2.351424    2.300926    0.873646
     12          1           0       -2.351424    2.300926   -0.873646
     13          1           0       -3.423708    1.233210    0.000000
 ---------------------------------------------------------------------
 Rotational constants (GHZ):      2.1149104      0.7599641      0.5609794
 Standard basis: STO-3G (5D, 7F)
 There are    45 symmetry adapted cartesian basis functions of A'  symmetry.
 There are    12 symmetry adapted cartesian basis functions of A"  symmetry.
 There are    45 symmetry adapted basis functions of A'  symmetry.
 There are    12 symmetry adapted basis functions of A"  symmetry.
    57 basis functions,   171 primitive gaussians,    57 cartesian basis functions
    41 alpha electrons       41 beta electrons
       nuclear repulsion energy       554.7204222427 Hartrees.
 NAtoms=   13 NActive=   13 NUniq=   12 SFac= 1.17D+00 NAtFMM=   60 NAOKFM=F Big=F
 Integral buffers will be    262144 words long.
 Raffenetti 2 integral format.
 Two-electron integral symmetry is turned on.
 One-electron integrals computed using PRISM.
 NBasis=    57 RedAO= T EigKep=  2.37D-01  NBF=    45    12
 NBsUse=    57 1.00D-06 EigRej= -1.00D+00 NBFU=    45    12
 ExpMin= 1.69D-01 ExpMax= 6.01D+02 ExpMxC= 6.01D+02 IAcc=1 IRadAn=         1 AccDes= 0.00D+00
 Harris functional with IExCor=  402 and IRadAn=       1 diagonalized for initial guess.
 HarFok:  IExCor=  402 AccDes= 0.00D+00 IRadAn=         1 IDoV= 1 UseB2=F ITyADJ=14
 ICtDFT=  3500011 ScaDFX=  1.000000  1.000000  1.000000  1.000000
 FoFCou: FMM=F IPFlag=           0 FMFlag=      100000 FMFlg1=           0
         NFxFlg=           0 DoJE=T BraDBF=F KetDBF=T FulRan=T
         wScrn=  0.000000 ICntrl=     500 IOpCl=  0 I1Cent=   200000004 NGrid=           0
         NMat0=    1 NMatS0=      1 NMatT0=    0 NMatD0=    1 NMtDS0=    0 NMtDT0=    0
 Petite list used in FoFCou.
 Initial guess orbital symmetries:
       Occupied  (A') (A') (A') (A') (A') (A') (A') (A') (A') (A')
                 (A') (A') (A') (A') (A") (A') (A") (A') (A') (A')
                 (A') (A') (A') (A') (A') (A') (A') (A") (A') (A')
                 (A") (A') (A') (A") (A') (A") (A') (A') (A") (A')
                 (A")
       Virtual   (A") (A") (A') (A") (A') (A') (A') (A') (A") (A')
                 (A') (A') (A') (A') (A') (A')
 The electronic state of the initial guess is 1-A'.
 Keep R1 ints in memory in symmetry-blocked form, NReq=2271536.
 Requested convergence on RMS density matrix=1.00D-08 within 128 cycles.
 Requested convergence on MAX density matrix=1.00D-06.
 Requested convergence on             energy=1.00D-06.
 No special actions if energy rises.
 Integral accuracy reduced to 1.0D-05 until final iterations.
 Initial convergence to 1.0D-05 achieved.  Increase integral accuracy.
 SCF Done:  E(RB3LYP) =  -1208.98391416     A.U. after   14 cycles
            NFock= 14  Conv=0.83D-08     -V/T= 2.0195

 **********************************************************************

            Population analysis using the SCF density.

 **********************************************************************

 Orbital symmetries:
       Occupied  (A') (A') (A') (A') (A') (A') (A') (A') (A') (A')
                 (A') (A') (A') (A") (A') (A") (A') (A') (A') (A')
                 (A') (A') (A') (A') (A') (A') (A') (A") (A') (A')
                 (A") (A') (A') (A") (A") (A') (A') (A') (A") (A")
                 (A')
       Virtual   (A") (A") (A') (A') (A") (A') (A') (A') (A') (A')
                 (A") (A') (A') (A') (A') (A')
 The electronic state is 1-A'.
 Alpha  occ. eigenvalues -- -100.50060-100.49413 -14.20269 -14.19302 -10.16599
 Alpha  occ. eigenvalues --  -10.14945 -10.10422 -10.08493 -10.05695  -9.29494
 Alpha  occ. eigenvalues --   -9.28776  -7.07530  -7.06830  -7.05979  -7.05871
 Alpha  occ. eigenvalues --   -7.05260  -7.05144  -0.99583  -0.90090  -0.84514
 Alpha  occ. eigenvalues --   -0.79674  -0.77407  -0.69091  -0.63680  -0.60077
 Alpha  occ. eigenvalues --   -0.51817  -0.48483  -0.44366  -0.41491  -0.41330
 Alpha  occ. eigenvalues --   -0.40870  -0.40018  -0.38790  -0.33611  -0.30009
 Alpha  occ. eigenvalues --   -0.27830  -0.26693  -0.26317  -0.25974  -0.22951
 Alpha  occ. eigenvalues --   -0.20484
 Alpha virt. eigenvalues --    0.00727   0.01381   0.10313   0.13560   0.16786
 Alpha virt. eigenvalues --    0.31380   0.35990   0.36956   0.38928   0.44503
 Alpha virt. eigenvalues --    0.44927   0.46667   0.50828   0.52145   0.61997
 Alpha virt. eigenvalues --    0.67703
          Condensed to atoms (all electrons):
               1          2          3          4          5          6
     1  C    4.828451   0.417535  -0.041377  -0.018612  -0.044045   0.416324
     2  N    0.417535   6.469900   0.432764  -0.024898  -0.008866  -0.020539
     3  C   -0.041377   0.432764   4.833300   0.489126  -0.031330  -0.009448
     4  C   -0.018612  -0.024898   0.489126   4.824152   0.489135  -0.024106
     5  C   -0.044045  -0.008866  -0.031330   0.489135   4.778891   0.426166
     6  N    0.416324  -0.020539  -0.009448  -0.024106   0.426166   6.481688
     7  H    0.002557  -0.000052   0.001178  -0.027657   0.387394  -0.029042
     8  Cl   0.246589  -0.032605   0.001178  -0.000028   0.001198  -0.032532
     9  Cl   0.001228  -0.032289   0.241762  -0.030785   0.000542  -0.000017
    10  C    0.000085   0.000451  -0.024626   0.370484  -0.023637   0.000469
    11  H    0.000002   0.000003  -0.002367  -0.019926   0.000584  -0.000012
    12  H    0.000002   0.000003  -0.002367  -0.019926   0.000584  -0.000012
    13  H   -0.000001  -0.000012   0.001266  -0.020296  -0.004353   0.000026
               7          8          9         10         11         12
     1  C    0.002557   0.246589   0.001228   0.000085   0.000002   0.000002
     2  N   -0.000052  -0.032605  -0.032289   0.000451   0.000003   0.000003
     3  C    0.001178   0.001178   0.241762  -0.024626  -0.002367  -0.002367
     4  C   -0.027657  -0.000028  -0.030785   0.370484  -0.019926  -0.019926
     5  C    0.387394   0.001198   0.000542  -0.023637   0.000584   0.000584
     6  N   -0.029042  -0.032532  -0.000017   0.000469  -0.000012  -0.000012
     7  H    0.554914  -0.000016  -0.000013  -0.002763   0.000029   0.000029
     8  Cl  -0.000016  16.868867  -0.000004   0.000000   0.000000   0.000000
     9  Cl  -0.000013  -0.000004  16.886136  -0.002465   0.000357   0.000357
    10  C   -0.002763   0.000000  -0.002465   4.772002   0.384134   0.384134
    11  H    0.000029   0.000000   0.000357   0.384134   0.567921  -0.019661
    12  H    0.000029   0.000000   0.000357   0.384134  -0.019661   0.567921
    13  H    0.000850   0.000000   0.000034   0.386974  -0.020048  -0.020048
              13
     1  C   -0.000001
     2  N   -0.000012
     3  C    0.001266
     4  C   -0.020296
     5  C   -0.004353
     6  N    0.000026
     7  H    0.000850
     8  Cl   0.000000
     9  Cl   0.000034
    10  C    0.386974
    11  H   -0.020048
    12  H   -0.020048
    13  H    0.576360
 Mulliken charges:
               1
     1  C    0.191263
     2  N   -0.201394
     3  C    0.110942
     4  C    0.013337
     5  C    0.027738
     6  N   -0.208964
     7  H    0.112593
     8  Cl  -0.052648
     9  Cl  -0.064842
    10  C   -0.245242
    11  H    0.108986
    12  H    0.108986
    13  H    0.099246
 Sum of Mulliken charges =   0.00000
 Mulliken charges with hydrogens summed into heavy atoms:
               1
     1  C    0.191263
     2  N   -0.201394
     3  C    0.110942
     4  C    0.013337
     5  C    0.140331
     6  N   -0.208964
     8  Cl  -0.052648
     9  Cl  -0.064842
    10  C    0.071975
 Electronic spatial extent (au):  <R**2>=           1803.7262
 Charge=              0.0000 electrons
 Dipole moment (field-independent basis, Debye):
    X=             -3.6634    Y=              1.4404    Z=              0.0000  Tot=              3.9364
 Quadrupole moment (field-independent basis, Debye-Ang):
   XX=            -58.9056   YY=            -68.5284   ZZ=            -59.7518
   XY=             -1.7360   XZ=              0.0000   YZ=              0.0000
 Traceless Quadrupole moment (field-independent basis, Debye-Ang):
   XX=              3.4897   YY=             -6.1332   ZZ=              2.6435
   XY=             -1.7360   XZ=              0.0000   YZ=              0.0000
 Octapole moment (field-independent basis, Debye-Ang**2):
  XXX=            -11.7227  YYY=             12.2765  ZZZ=              0.0000  XYY=             -2.1950
  XXY=              3.5566  XXZ=              0.0000  XZZ=              3.7582  YZZ=              0.2028
  YYZ=              0.0000  XYZ=              0.0000
 Hexadecapole moment (field-independent basis, Debye-Ang**3):
 XXXX=           -741.3797 YYYY=          -1359.1334 ZZZZ=            -53.4932 XXXY=            182.1184
 XXXZ=              0.0000 YYYX=            168.2122 YYYZ=              0.0000 ZZZX=              0.0000
 ZZZY=              0.0000 XXYY=           -346.9444 XXZZ=           -140.2763 YYZZ=           -223.8589
 XXYZ=              0.0000 YYXZ=              0.0000 ZZXY=             57.0082
 N-N= 5.547204222427D+02 E-N=-3.951042869395D+03  KE= 1.185862740525D+03
 Symmetry A'   KE= 1.089748688703D+03
 Symmetry A"   KE= 9.611405182186D+01
 Calling FoFJK, ICntrl=      2127 FMM=F ISym2X=1 I1Cent= 0 IOpClX= 0 NMat=1 NMatS=1 NMatT=0.
 ***** Axes restored to original set *****
 -------------------------------------------------------------------
 Center     Atomic                   Forces (Hartrees/Bohr)
 Number     Number              X              Y              Z
 -------------------------------------------------------------------
      1        6           0.021879509    0.007570485    0.000000000
      2        7          -0.014780721   -0.038307981    0.000000000
      3        6          -0.010450895    0.022028625    0.000000000
      4        6           0.030515778    0.013729987    0.000000000
      5        6           0.020904670    0.002280953    0.000000000
      6        7          -0.044412147    0.019778748    0.000000000
      7        1           0.001923056   -0.000902256    0.000000000
      8       17          -0.024501006   -0.009048671    0.000000000
      9       17           0.020377243   -0.017031350    0.000000000
     10        6          -0.032713488   -0.006545931    0.000000000
     11        1           0.014954805   -0.009266953    0.020790485
     12        1           0.014954805   -0.009266953   -0.020790485
     13        1           0.001348389    0.024981296    0.000000000
 -------------------------------------------------------------------
 Cartesian Forces:  Max     0.044412147 RMS     0.017064340

 GradGradGradGradGradGradGradGradGradGradGradGradGradGradGradGradGradGrad
 Berny optimization.
 FormGI is forming the generalized inverse of G from B-inverse, IUseBI=4.
 Internal  Forces:  Max     0.036764710 RMS     0.011789252
 Search for a local minimum.
 Step number   1 out of a maximum of   65
 All quantities printed in internal units (Hartrees-Bohrs-Radians)
 Mixed Optimization -- RFO/linear search
 Second derivative matrix not updated -- first step.
 ITU=  0
     Eigenvalues ---    0.00237   0.01240   0.02004   0.02081   0.02107
     Eigenvalues ---    0.02206   0.02236   0.02253   0.07243   0.07243
     Eigenvalues ---    0.16000   0.16000   0.16000   0.16000   0.23297
     Eigenvalues ---    0.25000   0.25000   0.25000   0.25000   0.25000
     Eigenvalues ---    0.28519   0.29539   0.29539   0.33174   0.37230
     Eigenvalues ---    0.37230   0.37230   0.42056   0.43484   0.50635
     Eigenvalues ---    0.51072   0.53462   0.55127
 RFO step:  Lambda=-1.89010044D-02 EMin= 2.36824203D-03
 Linear search not attempted -- first point.
 Iteration  1 RMS(Cart)=  0.03619925 RMS(Int)=  0.00031436
 Iteration  2 RMS(Cart)=  0.00037435 RMS(Int)=  0.00005529
 Iteration  3 RMS(Cart)=  0.00000010 RMS(Int)=  0.00005529
 ClnCor:  largest displacement from symmetrization is 5.86D-10 for atom    12.
 Variable       Old X    -DE/DX   Delta X   Delta X   Delta X     New X
                                 (Linear)    (Quad)   (Total)
    R1        2.57212   0.02088   0.00000   0.03934   0.03939   2.61151
    R2        2.57219   0.02117   0.00000   0.03994   0.04003   2.61222
    R3        3.32592   0.02612   0.00000   0.08309   0.08309   3.40901
    R4        2.55020   0.02843   0.00000   0.04976   0.04973   2.59993
    R5        2.66141   0.01529   0.00000   0.03179   0.03170   2.69311
    R6        3.32592   0.02650   0.00000   0.08432   0.08432   3.41024
    R7        2.66137   0.01115   0.00000   0.02292   0.02287   2.68424
    R8        2.91018  -0.00141   0.00000  -0.00462  -0.00462   2.90556
    R9        2.55019   0.03676   0.00000   0.06455   0.06457   2.61476
   R10        2.08747  -0.00064   0.00000  -0.00181  -0.00181   2.08566
   R11        2.02200   0.02711   0.00000   0.06931   0.06931   2.09131
   R12        2.02200   0.02711   0.00000   0.06931   0.06931   2.09131
   R13        2.02201   0.02498   0.00000   0.06386   0.06386   2.08587
    A1        2.21412   0.00811   0.00000   0.03349   0.03361   2.24774
    A2        2.03452  -0.00475   0.00000  -0.01931  -0.01937   2.01515
    A3        2.03454  -0.00337   0.00000  -0.01418  -0.01425   2.02030
    A4        2.02153  -0.00917   0.00000  -0.03252  -0.03250   1.98903
    A5        2.13493   0.01002   0.00000   0.03391   0.03379   2.16872
    A6        2.02988  -0.00216   0.00000  -0.00634  -0.00628   2.02360
    A7        2.11838  -0.00787   0.00000  -0.02757  -0.02751   2.09087
    A8        2.03932  -0.00708   0.00000  -0.03185  -0.03200   2.00732
    A9        2.12190   0.00407   0.00000   0.01788   0.01796   2.13986
   A10        2.12196   0.00302   0.00000   0.01397   0.01405   2.13601
   A11        2.13495   0.01017   0.00000   0.03939   0.03936   2.17431
   A12        2.11838  -0.00720   0.00000  -0.03153  -0.03152   2.08686
   A13        2.02986  -0.00297   0.00000  -0.00785  -0.00784   2.02202
   A14        2.02151  -0.01205   0.00000  -0.04243  -0.04226   1.97925
   A15        1.91064   0.00211   0.00000   0.01069   0.01064   1.92127
   A16        1.91064   0.00211   0.00000   0.01069   0.01064   1.92127
   A17        1.91063   0.00139   0.00000   0.00994   0.00986   1.92049
   A18        1.91062  -0.00313   0.00000  -0.02190  -0.02191   1.88871
   A19        1.91064  -0.00124   0.00000  -0.00471  -0.00480   1.90584
   A20        1.91064  -0.00124   0.00000  -0.00471  -0.00480   1.90584
    D1        0.00000   0.00000   0.00000   0.00000   0.00000   0.00000
    D2        3.14159   0.00000   0.00000   0.00000   0.00000   3.14159
    D3        0.00000   0.00000   0.00000   0.00000   0.00000   0.00000
    D4        3.14159   0.00000   0.00000   0.00000   0.00000   3.14159
    D5        0.00000   0.00000   0.00000   0.00000   0.00000   0.00000
    D6        3.14159   0.00000   0.00000   0.00000   0.00000   3.14159
    D7        0.00000   0.00000   0.00000   0.00000   0.00000   0.00000
    D8        3.14159   0.00000   0.00000   0.00000   0.00000   3.14159
    D9        3.14159   0.00000   0.00000   0.00000   0.00000   3.14159
   D10        0.00000   0.00000   0.00000   0.00000   0.00000   0.00000
   D11        0.00000   0.00000   0.00000   0.00000   0.00000   0.00000
   D12        3.14159   0.00000   0.00000   0.00000   0.00000   3.14159
   D13        3.14159   0.00000   0.00000   0.00000   0.00000   3.14159
   D14        0.00000   0.00000   0.00000   0.00000   0.00000   0.00000
   D15       -1.04719   0.00063   0.00000   0.00687   0.00689  -1.04030
   D16        1.04719  -0.00063   0.00000  -0.00687  -0.00689   1.04030
   D17        3.14159   0.00000   0.00000   0.00000   0.00000   3.14159
   D18        2.09440   0.00063   0.00000   0.00687   0.00689   2.10129
   D19       -2.09440  -0.00063   0.00000  -0.00687  -0.00689  -2.10129
   D20        0.00000   0.00000   0.00000   0.00000   0.00000   0.00000
   D21        0.00000   0.00000   0.00000   0.00000   0.00000   0.00000
   D22        3.14159   0.00000   0.00000   0.00000   0.00000   3.14159
         Item               Value     Threshold  Converged?
 Maximum Force            0.036765     0.000450     NO 
 RMS     Force            0.011789     0.000300     NO 
 Maximum Displacement     0.125599     0.001800     NO 
 RMS     Displacement     0.036097     0.001200     NO 
 Predicted change in Energy=-9.928969D-03
 GradGradGradGradGradGradGradGradGradGradGradGradGradGradGradGradGradGrad

                          Input orientation:                          
 ---------------------------------------------------------------------
 Center     Atomic      Atomic             Coordinates (Angstroms)
 Number     Number       Type             X           Y           Z
 ---------------------------------------------------------------------
      1          6           0       -1.437514    0.082482    0.000000
      2          7           0       -0.460110   -0.894489    0.000000
      3          6           0        0.823905   -0.400330    0.000000
      4          6           0        1.149553    0.987099    0.000000
      5          6           0        0.033599    1.865904    0.000000
      6          7           0       -1.288187    1.456720    0.000000
      7          1           0        0.199631    2.957027    0.000000
      8         17           0       -3.137454   -0.521268    0.000000
      9         17           0        2.143573   -1.631235    0.000000
     10          6           0        2.599846    1.497708    0.000000
     11          1           0        3.132901    1.127843    0.896538
     12          1           0        3.132901    1.127843   -0.896538
     13          1           0        2.612180    2.601432    0.000000
 ---------------------------------------------------------------------
                    Distance matrix (angstroms):
                    1          2          3          4          5
     1  C    0.000000
     2  N    1.381952   0.000000
     3  C    2.312385   1.375822   0.000000
     4  C    2.740666   2.476164   1.425134   0.000000
     5  C    2.311876   2.804196   2.400083   1.420441   0.000000
     6  N    1.382328   2.492768   2.812395   2.482563   1.383672
     7  H    3.308059   3.907612   3.414903   2.186999   1.103683
     8  Cl   1.803970   2.703232   3.963205   4.544624   3.969152
     9  Cl   3.970014   2.705912   1.804619   2.800670   4.084357
    10  C    4.278218   3.884063   2.599330   1.537554   2.592527
    11  H    4.773391   4.219400   2.910422   2.181114   3.309711
    12  H    4.773391   4.219400   2.910422   2.181114   3.309711
    13  H    4.769186   4.654076   3.494067   2.178381   2.681432
                    6          7          8          9         10
     6  N    0.000000
     7  H    2.112942   0.000000
     8  Cl   2.707808   4.820236   0.000000
     9  Cl   4.616540   4.983077   5.396413   0.000000
    10  C    3.888249   2.809029   6.082177   3.162036   0.000000
    11  H    4.523047   3.571242   6.545281   3.065137   1.106675
    12  H    4.523047   3.571242   6.545281   3.065137   1.106675
    13  H    4.064877   2.438614   6.542900   4.258528   1.103793
                   11         12         13
    11  H    0.000000
    12  H    1.793077   0.000000
    13  H    1.801776   1.801776   0.000000
 Stoichiometry    C5H4Cl2N2
 Framework group  CS[SG(C5H2Cl2N2),X(H2)]
 Deg. of freedom    22
 Full point group                 CS      NOp   2
 Largest Abelian subgroup         CS      NOp   2
 Largest concise Abelian subgroup CS      NOp   2
                         Standard orientation:                         
 ---------------------------------------------------------------------
 Center     Atomic      Atomic             Coordinates (Angstroms)
 Number     Number       Type             X           Y           Z
 ---------------------------------------------------------------------
      1          6           0        0.523331   -1.328318    0.000000
      2          7           0        0.992705   -0.028519    0.000000
      3          6           0        0.000000    0.924069    0.000000
      4          6           0       -1.394389    0.629641    0.000000
      5          6           0       -1.716047   -0.753901    0.000000
      6          7           0       -0.784230   -1.776773    0.000000
      7          1           0       -2.774390   -1.066992    0.000000
      8         17           0        1.791898   -2.610912    0.000000
      9         17           0        0.553908    2.641578    0.000000
     10          6           0       -2.472606    1.725779    0.000000
     11          1           0       -2.364146    2.365454    0.896538
     12          1           0       -2.364146    2.365454   -0.896538
     13          1           0       -3.477080    1.268188    0.000000
 ---------------------------------------------------------------------
 Rotational constants (GHZ):      2.0684313      0.7334584      0.5433452
 Standard basis: STO-3G (5D, 7F)
 There are    45 symmetry adapted cartesian basis functions of A'  symmetry.
 There are    12 symmetry adapted cartesian basis functions of A"  symmetry.
 There are    45 symmetry adapted basis functions of A'  symmetry.
 There are    12 symmetry adapted basis functions of A"  symmetry.
    57 basis functions,   171 primitive gaussians,    57 cartesian basis functions
    41 alpha electrons       41 beta electrons
       nuclear repulsion energy       545.8951114886 Hartrees.
 NAtoms=   13 NActive=   13 NUniq=   12 SFac= 1.17D+00 NAtFMM=   60 NAOKFM=F Big=F
 Integral buffers will be    262144 words long.
 Raffenetti 2 integral format.
 Two-electron integral symmetry is turned on.
 One-electron integrals computed using PRISM.
 NBasis=    57 RedAO= T EigKep=  2.56D-01  NBF=    45    12
 NBsUse=    57 1.00D-06 EigRej= -1.00D+00 NBFU=    45    12
 Initial guess from the checkpoint file:  "D:\mindmap\gaussian\calculate\opt_freq\QM1\QM1.chk"
 B after Tr=     0.000000    0.000000    0.000000
         Rot=    0.999997    0.000000    0.000000    0.002323 Ang=   0.27 deg.
 Initial guess orbital symmetries:
       Occupied  (A') (A') (A') (A') (A') (A') (A') (A') (A') (A')
                 (A') (A') (A') (A") (A') (A") (A') (A') (A') (A')
                 (A') (A') (A') (A') (A') (A') (A') (A") (A') (A')
                 (A") (A') (A') (A") (A") (A') (A') (A') (A") (A")
                 (A')
       Virtual   (A') (A') (A') (A') (A') (A') (A') (A') (A') (A')
                 (A') (A') (A") (A") (A") (A")
 ExpMin= 1.69D-01 ExpMax= 6.01D+02 ExpMxC= 6.01D+02 IAcc=1 IRadAn=         1 AccDes= 0.00D+00
 Harris functional with IExCor=  402 and IRadAn=       1 diagonalized for initial guess.
 HarFok:  IExCor=  402 AccDes= 0.00D+00 IRadAn=         1 IDoV= 1 UseB2=F ITyADJ=14
 ICtDFT=  3500011 ScaDFX=  1.000000  1.000000  1.000000  1.000000
 FoFCou: FMM=F IPFlag=           0 FMFlag=      100000 FMFlg1=           0
         NFxFlg=           0 DoJE=T BraDBF=F KetDBF=T FulRan=T
         wScrn=  0.000000 ICntrl=     500 IOpCl=  0 I1Cent=   200000004 NGrid=           0
         NMat0=    1 NMatS0=      1 NMatT0=    0 NMatD0=    1 NMtDS0=    0 NMtDT0=    0
 Petite list used in FoFCou.
 Keep R1 ints in memory in symmetry-blocked form, NReq=2271536.
 Requested convergence on RMS density matrix=1.00D-08 within 128 cycles.
 Requested convergence on MAX density matrix=1.00D-06.
 Requested convergence on             energy=1.00D-06.
 No special actions if energy rises.
 Integral accuracy reduced to 1.0D-05 until final iterations.
 Initial convergence to 1.0D-05 achieved.  Increase integral accuracy.
 SCF Done:  E(RB3LYP) =  -1208.99361363     A.U. after   14 cycles
            NFock= 14  Conv=0.39D-08     -V/T= 2.0197
 Calling FoFJK, ICntrl=      2127 FMM=F ISym2X=1 I1Cent= 0 IOpClX= 0 NMat=1 NMatS=1 NMatT=0.
 ***** Axes restored to original set *****
 -------------------------------------------------------------------
 Center     Atomic                   Forces (Hartrees/Bohr)
 Number     Number              X              Y              Z
 -------------------------------------------------------------------
      1        6           0.010493586    0.004732251    0.000000000
      2        7          -0.000658628   -0.011473071    0.000000000
      3        6          -0.006202568    0.008466336    0.000000000
      4        6           0.003727704    0.001313459    0.000000000
      5        6           0.007029214   -0.005669928    0.000000000
      6        7          -0.010417808    0.004451173    0.000000000
      7        1          -0.000724958    0.000409039    0.000000000
      8       17          -0.000602405   -0.000405397    0.000000000
      9       17           0.000614450   -0.000941944    0.000000000
     10        6          -0.001995293    0.000143310    0.000000000
     11        1          -0.000787671    0.000914489   -0.002577883
     12        1          -0.000787671    0.000914489    0.002577883
     13        1           0.000312047   -0.002854206    0.000000000
 -------------------------------------------------------------------
 Cartesian Forces:  Max     0.011473071 RMS     0.004022956

 GradGradGradGradGradGradGradGradGradGradGradGradGradGradGradGradGradGrad
 Berny optimization.
 Using GEDIIS/GDIIS optimizer.
 FormGI is forming the generalized inverse of G from B-inverse, IUseBI=4.
 Internal  Forces:  Max     0.007489058 RMS     0.002269923
 Search for a local minimum.
 Step number   2 out of a maximum of   65
 All quantities printed in internal units (Hartrees-Bohrs-Radians)
 Mixed Optimization -- RFO/linear search
 Update second derivatives using D2CorX and points    1    2
 DE= -9.70D-03 DEPred=-9.93D-03 R= 9.77D-01
 TightC=F SS=  1.41D+00  RLast= 2.25D-01 DXNew= 5.0454D-01 6.7567D-01
 Trust test= 9.77D-01 RLast= 2.25D-01 DXMaxT set to 5.05D-01
 ITU=  1  0
 Use linear search instead of GDIIS.
     Eigenvalues ---    0.00237   0.01221   0.02006   0.02083   0.02109
     Eigenvalues ---    0.02206   0.02232   0.02251   0.07099   0.07144
     Eigenvalues ---    0.15931   0.16000   0.16000   0.16039   0.21058
     Eigenvalues ---    0.23688   0.25000   0.25000   0.25000   0.25070
     Eigenvalues ---    0.28420   0.29538   0.30221   0.33175   0.37229
     Eigenvalues ---    0.37230   0.40165   0.43463   0.43629   0.50749
     Eigenvalues ---    0.51336   0.53284   0.56228
 RFO step:  Lambda=-1.10782322D-03 EMin= 2.36824203D-03
 Quartic linear search produced a step of  0.06239.
 Iteration  1 RMS(Cart)=  0.00812390 RMS(Int)=  0.00008914
 Iteration  2 RMS(Cart)=  0.00011441 RMS(Int)=  0.00002572
 Iteration  3 RMS(Cart)=  0.00000001 RMS(Int)=  0.00002572
 ClnCor:  largest displacement from symmetrization is 2.21D-09 for atom    12.
 Variable       Old X    -DE/DX   Delta X   Delta X   Delta X     New X
                                 (Linear)    (Quad)   (Total)
    R1        2.61151   0.00183   0.00246   0.00386   0.00636   2.61787
    R2        2.61222   0.00132   0.00250   0.00295   0.00548   2.61771
    R3        3.40901   0.00070   0.00518   0.00226   0.00745   3.41646
    R4        2.59993  -0.00104   0.00310  -0.00236   0.00075   2.60068
    R5        2.69311  -0.00175   0.00198  -0.00487  -0.00293   2.69019
    R6        3.41024   0.00109   0.00526   0.00364   0.00890   3.41914
    R7        2.68424  -0.00332   0.00143  -0.00842  -0.00703   2.67721
    R8        2.90556  -0.00337  -0.00029  -0.01247  -0.01276   2.89279
    R9        2.61476   0.00336   0.00403   0.00630   0.01032   2.62508
   R10        2.08566   0.00030  -0.00011   0.00096   0.00085   2.08650
   R11        2.09131  -0.00277   0.00432  -0.00813  -0.00381   2.08750
   R12        2.09131  -0.00277   0.00432  -0.00813  -0.00381   2.08750
   R13        2.08587  -0.00286   0.00398  -0.00836  -0.00438   2.08149
    A1        2.24774   0.00724   0.00210   0.03186   0.03402   2.28176
    A2        2.01515  -0.00390  -0.00121  -0.01712  -0.01836   1.99679
    A3        2.02030  -0.00334  -0.00089  -0.01474  -0.01566   2.00463
    A4        1.98903  -0.00749  -0.00203  -0.03141  -0.03336   1.95568
    A5        2.16872   0.00491   0.00211   0.01915   0.02123   2.18995
    A6        2.02360  -0.00293  -0.00039  -0.01162  -0.01199   2.01160
    A7        2.09087  -0.00198  -0.00172  -0.00753  -0.00924   2.08163
    A8        2.00732  -0.00058  -0.00200  -0.00435  -0.00643   2.00089
    A9        2.13986   0.00060   0.00112   0.00350   0.00466   2.14452
   A10        2.13601  -0.00002   0.00088   0.00085   0.00177   2.13778
   A11        2.17431   0.00184   0.00246   0.00804   0.01044   2.18475
   A12        2.08686  -0.00011  -0.00197   0.00129  -0.00065   2.08621
   A13        2.02202  -0.00172  -0.00049  -0.00933  -0.00979   2.01223
   A14        1.97925  -0.00591  -0.00264  -0.02329  -0.02591   1.95334
   A15        1.92127   0.00055   0.00066   0.00321   0.00386   1.92514
   A16        1.92127   0.00055   0.00066   0.00321   0.00386   1.92514
   A17        1.92049   0.00037   0.00061   0.00326   0.00385   1.92434
   A18        1.88871  -0.00080  -0.00137  -0.00690  -0.00827   1.88044
   A19        1.90584  -0.00035  -0.00030  -0.00150  -0.00182   1.90402
   A20        1.90584  -0.00035  -0.00030  -0.00150  -0.00182   1.90402
    D1        0.00000   0.00000   0.00000   0.00000   0.00000   0.00000
    D2        3.14159   0.00000   0.00000   0.00000   0.00000   3.14159
    D3        0.00000   0.00000   0.00000   0.00000   0.00000   0.00000
    D4        3.14159   0.00000   0.00000   0.00000   0.00000   3.14159
    D5        0.00000   0.00000   0.00000   0.00000   0.00000   0.00000
    D6        3.14159   0.00000   0.00000   0.00000   0.00000   3.14159
    D7        0.00000   0.00000   0.00000   0.00000   0.00000   0.00000
    D8        3.14159   0.00000   0.00000   0.00000   0.00000   3.14159
    D9        3.14159   0.00000   0.00000   0.00000   0.00000   3.14159
   D10        0.00000   0.00000   0.00000   0.00000   0.00000   0.00000
   D11        0.00000   0.00000   0.00000   0.00000   0.00000   0.00000
   D12        3.14159   0.00000   0.00000   0.00000   0.00000   3.14159
   D13        3.14159   0.00000   0.00000   0.00000   0.00000   3.14159
   D14        0.00000   0.00000   0.00000   0.00000   0.00000   0.00000
   D15       -1.04030   0.00015   0.00043   0.00226   0.00269  -1.03760
   D16        1.04030  -0.00015  -0.00043  -0.00226  -0.00269   1.03760
   D17        3.14159   0.00000   0.00000   0.00000   0.00000   3.14159
   D18        2.10129   0.00015   0.00043   0.00226   0.00269   2.10399
   D19       -2.10129  -0.00015  -0.00043  -0.00226  -0.00269  -2.10399
   D20        0.00000   0.00000   0.00000   0.00000   0.00000   0.00000
   D21        0.00000   0.00000   0.00000   0.00000   0.00000   0.00000
   D22        3.14159   0.00000   0.00000   0.00000   0.00000   3.14159
         Item               Value     Threshold  Converged?
 Maximum Force            0.007489     0.000450     NO 
 RMS     Force            0.002270     0.000300     NO 
 Maximum Displacement     0.028941     0.001800     NO 
 RMS     Displacement     0.008153     0.001200     NO 
 Predicted change in Energy=-5.757022D-04
 GradGradGradGradGradGradGradGradGradGradGradGradGradGradGradGradGradGrad

                          Input orientation:                          
 ---------------------------------------------------------------------
 Center     Atomic      Atomic             Coordinates (Angstroms)
 Number     Number       Type             X           Y           Z
 ---------------------------------------------------------------------
      1          6           0       -1.422649    0.086704    0.000000
      2          7           0       -0.460321   -0.909804    0.000000
      3          6           0        0.816152   -0.395413    0.000000
      4          6           0        1.149122    0.988685    0.000000
      5          6           0        0.035313    1.864198    0.000000
      6          7           0       -1.295551    1.466091    0.000000
      7          1           0        0.201152    2.955803    0.000000
      8         17           0       -3.125883   -0.519543    0.000000
      9         17           0        2.143815   -1.624634    0.000000
     10          6           0        2.593493    1.495777    0.000000
     11          1           0        3.129581    1.125878    0.892220
     12          1           0        3.129581    1.125878   -0.892220
     13          1           0        2.611017    2.597115    0.000000
 ---------------------------------------------------------------------
                    Distance matrix (angstroms):
                    1          2          3          4          5
     1  C    0.000000
     2  N    1.385318   0.000000
     3  C    2.290124   1.376219   0.000000
     4  C    2.725358   2.488888   1.423586   0.000000
     5  C    2.298943   2.817932   2.390722   1.416719   0.000000
     6  N    1.385230   2.518429   2.815046   2.490852   1.389132
     7  H    3.296734   3.921793   3.407179   2.183620   1.104130
     8  Cl   1.807911   2.693980   3.943988   4.533257   3.959215
     9  Cl   3.955799   2.700464   1.809330   2.796221   4.076485
    10  C    4.256159   3.887493   2.595293   1.530801   2.584573
    11  H    4.753813   4.222257   2.909010   2.176488   3.303887
    12  H    4.753813   4.222257   2.909010   2.176488   3.303887
    13  H    4.751066   4.661716   3.489522   2.173519   2.677950
                    6          7          8          9         10
     6  N    0.000000
     7  H    2.111720   0.000000
     8  Cl   2.700530   4.811153   0.000000
     9  Cl   4.624048   4.975373   5.384324   0.000000
    10  C    3.889157   2.802672   6.064057   3.152646   0.000000
    11  H    4.526985   3.566564   6.529495   3.055013   1.104660
    12  H    4.526985   3.566564   6.529495   3.055013   1.104660
    13  H    4.067000   2.436413   6.528827   4.247522   1.101477
                   11         12         13
    11  H    0.000000
    12  H    1.784440   0.000000
    13  H    1.797082   1.797082   0.000000
 Stoichiometry    C5H4Cl2N2
 Framework group  CS[SG(C5H2Cl2N2),X(H2)]
 Deg. of freedom    22
 Full point group                 CS      NOp   2
 Largest Abelian subgroup         CS      NOp   2
 Largest concise Abelian subgroup CS      NOp   2
                         Standard orientation:                         
 ---------------------------------------------------------------------
 Center     Atomic      Atomic             Coordinates (Angstroms)
 Number     Number       Type             X           Y           Z
 ---------------------------------------------------------------------
      1          6           0        0.517054   -1.317038    0.000000
      2          7           0        1.008952   -0.021993    0.000000
      3          6           0        0.000000    0.913953    0.000000
      4          6           0       -1.394134    0.625881    0.000000
      5          6           0       -1.712054   -0.754705    0.000000
      6          7           0       -0.785158   -1.789380    0.000000
      7          1           0       -2.770371   -1.069457    0.000000
      8         17           0        1.790835   -2.600013    0.000000
      9         17           0        0.546901    2.638648    0.000000
     10          6           0       -2.467974    1.716853    0.000000
     11          1           0       -2.361549    2.359418    0.892220
     12          1           0       -2.361549    2.359418   -0.892220
     13          1           0       -3.471945    1.263760    0.000000
 ---------------------------------------------------------------------
 Rotational constants (GHZ):      2.0703495      0.7369808      0.5453907
 Standard basis: STO-3G (5D, 7F)
 There are    45 symmetry adapted cartesian basis functions of A'  symmetry.
 There are    12 symmetry adapted cartesian basis functions of A"  symmetry.
 There are    45 symmetry adapted basis functions of A'  symmetry.
 There are    12 symmetry adapted basis functions of A"  symmetry.
    57 basis functions,   171 primitive gaussians,    57 cartesian basis functions
    41 alpha electrons       41 beta electrons
       nuclear repulsion energy       546.3670146694 Hartrees.
 NAtoms=   13 NActive=   13 NUniq=   12 SFac= 1.17D+00 NAtFMM=   60 NAOKFM=F Big=F
 Integral buffers will be    262144 words long.
 Raffenetti 2 integral format.
 Two-electron integral symmetry is turned on.
 One-electron integrals computed using PRISM.
 NBasis=    57 RedAO= T EigKep=  2.54D-01  NBF=    45    12
 NBsUse=    57 1.00D-06 EigRej= -1.00D+00 NBFU=    45    12
 Initial guess from the checkpoint file:  "D:\mindmap\gaussian\calculate\opt_freq\QM1\QM1.chk"
 B after Tr=     0.000000    0.000000    0.000000
         Rot=    1.000000    0.000000    0.000000   -0.000879 Ang=  -0.10 deg.
 Initial guess orbital symmetries:
       Occupied  (A') (A') (A') (A') (A') (A') (A') (A') (A') (A')
                 (A') (A') (A') (A") (A') (A") (A') (A') (A') (A')
                 (A') (A') (A') (A') (A') (A') (A') (A") (A') (A')
                 (A") (A') (A') (A") (A") (A') (A') (A') (A") (A")
                 (A')
       Virtual   (A') (A') (A') (A') (A') (A') (A') (A') (A') (A')
                 (A') (A') (A") (A") (A") (A")
 ExpMin= 1.69D-01 ExpMax= 6.01D+02 ExpMxC= 6.01D+02 IAcc=1 IRadAn=         1 AccDes= 0.00D+00
 Harris functional with IExCor=  402 and IRadAn=       1 diagonalized for initial guess.
 HarFok:  IExCor=  402 AccDes= 0.00D+00 IRadAn=         1 IDoV= 1 UseB2=F ITyADJ=14
 ICtDFT=  3500011 ScaDFX=  1.000000  1.000000  1.000000  1.000000
 FoFCou: FMM=F IPFlag=           0 FMFlag=      100000 FMFlg1=           0
         NFxFlg=           0 DoJE=T BraDBF=F KetDBF=T FulRan=T
         wScrn=  0.000000 ICntrl=     500 IOpCl=  0 I1Cent=   200000004 NGrid=           0
         NMat0=    1 NMatS0=      1 NMatT0=    0 NMatD0=    1 NMtDS0=    0 NMtDT0=    0
 Petite list used in FoFCou.
 Keep R1 ints in memory in symmetry-blocked form, NReq=2271536.
 Requested convergence on RMS density matrix=1.00D-08 within 128 cycles.
 Requested convergence on MAX density matrix=1.00D-06.
 Requested convergence on             energy=1.00D-06.
 No special actions if energy rises.
 Integral accuracy reduced to 1.0D-05 until final iterations.
 Initial convergence to 1.0D-05 achieved.  Increase integral accuracy.
 SCF Done:  E(RB3LYP) =  -1208.99419901     A.U. after   12 cycles
            NFock= 12  Conv=0.68D-08     -V/T= 2.0197
 Calling FoFJK, ICntrl=      2127 FMM=F ISym2X=1 I1Cent= 0 IOpClX= 0 NMat=1 NMatS=1 NMatT=0.
 ***** Axes restored to original set *****
 -------------------------------------------------------------------
 Center     Atomic                   Forces (Hartrees/Bohr)
 Number     Number              X              Y              Z
 -------------------------------------------------------------------
      1        6          -0.002058950    0.001844311    0.000000000
      2        7          -0.000155689   -0.002266080    0.000000000
      3        6           0.002401887    0.000755988    0.000000000
      4        6          -0.001191631   -0.000116375    0.000000000
      5        6           0.003386135    0.000963224    0.000000000
      6        7          -0.001711168   -0.001482571    0.000000000
      7        1          -0.000267650    0.000087481    0.000000000
      8       17          -0.000281385   -0.000135101    0.000000000
      9       17          -0.000357923    0.000360055    0.000000000
     10        6           0.001427178    0.000196675    0.000000000
     11        1          -0.000548823    0.000443629   -0.000860059
     12        1          -0.000548823    0.000443629    0.000860059
     13        1          -0.000093158   -0.001094865    0.000000000
 -------------------------------------------------------------------
 Cartesian Forces:  Max     0.003386135 RMS     0.001065627

 GradGradGradGradGradGradGradGradGradGradGradGradGradGradGradGradGradGrad
 Berny optimization.
 Using GEDIIS/GDIIS optimizer.
 FormGI is forming the generalized inverse of G from B-inverse, IUseBI=4.
 Internal  Forces:  Max     0.002546963 RMS     0.000631354
 Search for a local minimum.
 Step number   3 out of a maximum of   65
 All quantities printed in internal units (Hartrees-Bohrs-Radians)
 Mixed Optimization -- En-DIIS/RFO-DIIS
 Update second derivatives using D2CorX and points    1    2    3
 DE= -5.85D-04 DEPred=-5.76D-04 R= 1.02D+00
 TightC=F SS=  1.41D+00  RLast= 7.22D-02 DXNew= 8.4853D-01 2.1646D-01
 Trust test= 1.02D+00 RLast= 7.22D-02 DXMaxT set to 5.05D-01
 ITU=  1  1  0
 Use linear search instead of GDIIS.
     Eigenvalues ---    0.00237   0.01218   0.02007   0.02083   0.02109
     Eigenvalues ---    0.02206   0.02229   0.02249   0.07043   0.07120
     Eigenvalues ---    0.15779   0.16000   0.16003   0.16042   0.21035
     Eigenvalues ---    0.23502   0.25000   0.25000   0.25010   0.25279
     Eigenvalues ---    0.28419   0.29633   0.30340   0.33175   0.37228
     Eigenvalues ---    0.37230   0.40134   0.42450   0.43495   0.50664
     Eigenvalues ---    0.51530   0.53188   0.56940
 RFO step:  Lambda=-4.90106927D-05 EMin= 2.36824203D-03
 Quartic linear search produced a step of  0.00370.
 Iteration  1 RMS(Cart)=  0.00166188 RMS(Int)=  0.00000104
 Iteration  2 RMS(Cart)=  0.00000131 RMS(Int)=  0.00000027
 Iteration  3 RMS(Cart)=  0.00000000 RMS(Int)=  0.00000027
 ClnCor:  largest displacement from symmetrization is 1.24D-11 for atom    12.
 Variable       Old X    -DE/DX   Delta X   Delta X   Delta X     New X
                                 (Linear)    (Quad)   (Total)
    R1        2.61787   0.00213   0.00002   0.00450   0.00453   2.62240
    R2        2.61771  -0.00037   0.00002  -0.00029  -0.00027   2.61743
    R3        3.41646   0.00031   0.00003   0.00158   0.00161   3.41806
    R4        2.60068   0.00210   0.00000   0.00402   0.00402   2.60470
    R5        2.69019  -0.00018  -0.00001  -0.00051  -0.00052   2.68966
    R6        3.41914  -0.00051   0.00003  -0.00115  -0.00112   3.41802
    R7        2.67721  -0.00061  -0.00003  -0.00169  -0.00171   2.67550
    R8        2.89279   0.00022  -0.00005   0.00032   0.00027   2.89306
    R9        2.62508   0.00255   0.00004   0.00516   0.00520   2.63028
   R10        2.08650   0.00005   0.00000   0.00017   0.00018   2.08668
   R11        2.08750  -0.00111  -0.00001  -0.00289  -0.00290   2.08460
   R12        2.08750  -0.00111  -0.00001  -0.00289  -0.00290   2.08460
   R13        2.08149  -0.00110  -0.00002  -0.00292  -0.00293   2.07856
    A1        2.28176  -0.00072   0.00013  -0.00122  -0.00109   2.28067
    A2        1.99679   0.00033  -0.00007   0.00043   0.00037   1.99716
    A3        2.00463   0.00039  -0.00006   0.00078   0.00072   2.00536
    A4        1.95568  -0.00020  -0.00012  -0.00161  -0.00173   1.95395
    A5        2.18995   0.00021   0.00008   0.00156   0.00164   2.19159
    A6        2.01160  -0.00008  -0.00004  -0.00072  -0.00076   2.01084
    A7        2.08163  -0.00012  -0.00003  -0.00084  -0.00088   2.08075
    A8        2.00089   0.00039  -0.00002   0.00083   0.00081   2.00170
    A9        2.14452  -0.00025   0.00002  -0.00056  -0.00054   2.14398
   A10        2.13778  -0.00015   0.00001  -0.00027  -0.00027   2.13751
   A11        2.18475  -0.00033   0.00004  -0.00134  -0.00130   2.18345
   A12        2.08621   0.00045   0.00000   0.00255   0.00255   2.08875
   A13        2.01223  -0.00012  -0.00004  -0.00121  -0.00125   2.01098
   A14        1.95334   0.00065  -0.00010   0.00177   0.00167   1.95501
   A15        1.92514   0.00005   0.00001   0.00060   0.00062   1.92576
   A16        1.92514   0.00005   0.00001   0.00060   0.00062   1.92576
   A17        1.92434  -0.00014   0.00001  -0.00099  -0.00098   1.92337
   A18        1.88044   0.00004  -0.00003   0.00045   0.00042   1.88086
   A19        1.90402   0.00000  -0.00001  -0.00033  -0.00034   1.90368
   A20        1.90402   0.00000  -0.00001  -0.00033  -0.00034   1.90368
    D1        0.00000   0.00000   0.00000   0.00000   0.00000   0.00000
    D2        3.14159   0.00000   0.00000   0.00000   0.00000   3.14159
    D3        0.00000   0.00000   0.00000   0.00000   0.00000   0.00000
    D4        3.14159   0.00000   0.00000   0.00000   0.00000   3.14159
    D5        0.00000   0.00000   0.00000   0.00000   0.00000   0.00000
    D6        3.14159   0.00000   0.00000   0.00000   0.00000   3.14159
    D7        0.00000   0.00000   0.00000   0.00000   0.00000   0.00000
    D8        3.14159   0.00000   0.00000   0.00000   0.00000   3.14159
    D9        3.14159   0.00000   0.00000   0.00000   0.00000   3.14159
   D10        0.00000   0.00000   0.00000   0.00000   0.00000   0.00000
   D11        0.00000   0.00000   0.00000   0.00000   0.00000   0.00000
   D12        3.14159   0.00000   0.00000   0.00000   0.00000   3.14159
   D13        3.14159   0.00000   0.00000   0.00000   0.00000   3.14159
   D14        0.00000   0.00000   0.00000   0.00000   0.00000   0.00000
   D15       -1.03760  -0.00006   0.00001  -0.00066  -0.00065  -1.03826
   D16        1.03760   0.00006  -0.00001   0.00066   0.00065   1.03826
   D17        3.14159   0.00000   0.00000   0.00000   0.00000   3.14159
   D18        2.10399  -0.00006   0.00001  -0.00066  -0.00065   2.10334
   D19       -2.10399   0.00006  -0.00001   0.00066   0.00065  -2.10334
   D20        0.00000   0.00000   0.00000   0.00000   0.00000   0.00000
   D21        0.00000   0.00000   0.00000   0.00000   0.00000   0.00000
   D22        3.14159   0.00000   0.00000   0.00000   0.00000   3.14159
         Item               Value     Threshold  Converged?
 Maximum Force            0.002547     0.000450     NO 
 RMS     Force            0.000631     0.000300     NO 
 Maximum Displacement     0.006034     0.001800     NO 
 RMS     Displacement     0.001662     0.001200     NO 
 Predicted change in Energy=-2.451420D-05
 GradGradGradGradGradGradGradGradGradGradGradGradGradGradGradGradGradGrad

                          Input orientation:                          
 ---------------------------------------------------------------------
 Center     Atomic      Atomic             Coordinates (Angstroms)
 Number     Number       Type             X           Y           Z
 ---------------------------------------------------------------------
      1          6           0       -1.424766    0.086195    0.000000
      2          7           0       -0.460862   -0.912121    0.000000
      3          6           0        0.816735   -0.394836    0.000000
      4          6           0        1.149639    0.988993    0.000000
      5          6           0        0.037248    1.864842    0.000000
      6          7           0       -1.296058    1.465288    0.000000
      7          1           0        0.201197    2.956826    0.000000
      8         17           0       -3.129076   -0.519564    0.000000
      9         17           0        2.145042   -1.622490    0.000000
     10          6           0        2.594418    1.495353    0.000000
     11          1           0        3.129934    1.126551    0.891118
     12          1           0        3.129934    1.126551   -0.891118
     13          1           0        2.611438    2.595146    0.000000
 ---------------------------------------------------------------------
                    Distance matrix (angstroms):
                    1          2          3          4          5
     1  C    0.000000
     2  N    1.387713   0.000000
     3  C    2.292536   1.378346   0.000000
     4  C    2.728114   2.491575   1.423309   0.000000
     5  C    2.302405   2.821282   2.390344   1.415813   0.000000
     6  N    1.385086   2.519846   2.814952   2.491644   1.391886
     7  H    3.299133   3.925184   3.407716   2.184470   1.104223
     8  Cl   1.808761   2.696937   3.947782   4.536865   3.963710
     9  Cl   3.957669   2.700993   1.808738   2.794758   4.074836
    10  C    4.259057   3.889815   2.594796   1.530943   2.583726
    11  H    4.756230   4.224226   2.908538   2.175909   3.302101
    12  H    4.756230   4.224226   2.908538   2.175909   3.302101
    13  H    4.752450   4.662611   3.487255   2.171770   2.675780
                    6          7          8          9         10
     6  N    0.000000
     7  H    2.113399   0.000000
     8  Cl   2.701777   4.814147   0.000000
     9  Cl   4.623369   4.974804   5.388207   0.000000
    10  C    3.890591   2.804178   6.067806   3.150061   0.000000
    11  H    4.527498   3.566721   6.532916   3.053085   1.103124
    12  H    4.527498   3.566721   6.532916   3.053085   1.103124
    13  H    4.067567   2.437227   6.531073   4.243345   1.099924
                   11         12         13
    11  H    0.000000
    12  H    1.782236   0.000000
    13  H    1.794352   1.794352   0.000000
 Stoichiometry    C5H4Cl2N2
 Framework group  CS[SG(C5H2Cl2N2),X(H2)]
 Deg. of freedom    22
 Full point group                 CS      NOp   2
 Largest Abelian subgroup         CS      NOp   2
 Largest concise Abelian subgroup CS      NOp   2
                         Standard orientation:                         
 ---------------------------------------------------------------------
 Center     Atomic      Atomic             Coordinates (Angstroms)
 Number     Number       Type             X           Y           Z
 ---------------------------------------------------------------------
      1          6           0        0.517434   -1.318734    0.000000
      2          7           0        1.011315   -0.021880    0.000000
      3          6           0        0.000000    0.914646    0.000000
      4          6           0       -1.394088    0.627721    0.000000
      5          6           0       -1.713997   -0.751476    0.000000
      6          7           0       -0.785566   -1.788472    0.000000
      7          1           0       -2.772101   -1.067269    0.000000
      8         17           0        1.790224   -2.603889    0.000000
      9         17           0        0.546562    2.638828    0.000000
     10          6           0       -2.466582    1.720216    0.000000
     11          1           0       -2.360403    2.361713    0.891118
     12          1           0       -2.360403    2.361713   -0.891118
     13          1           0       -3.469295    1.268111    0.000000
 ---------------------------------------------------------------------
 Rotational constants (GHZ):      2.0718987      0.7358653      0.5448822
 Standard basis: STO-3G (5D, 7F)
 There are    45 symmetry adapted cartesian basis functions of A'  symmetry.
 There are    12 symmetry adapted cartesian basis functions of A"  symmetry.
 There are    45 symmetry adapted basis functions of A'  symmetry.
 There are    12 symmetry adapted basis functions of A"  symmetry.
    57 basis functions,   171 primitive gaussians,    57 cartesian basis functions
    41 alpha electrons       41 beta electrons
       nuclear repulsion energy       546.1655735279 Hartrees.
 NAtoms=   13 NActive=   13 NUniq=   12 SFac= 1.17D+00 NAtFMM=   60 NAOKFM=F Big=F
 Integral buffers will be    262144 words long.
 Raffenetti 2 integral format.
 Two-electron integral symmetry is turned on.
 One-electron integrals computed using PRISM.
 NBasis=    57 RedAO= T EigKep=  2.54D-01  NBF=    45    12
 NBsUse=    57 1.00D-06 EigRej= -1.00D+00 NBFU=    45    12
 Initial guess from the checkpoint file:  "D:\mindmap\gaussian\calculate\opt_freq\QM1\QM1.chk"
 B after Tr=     0.000000    0.000000    0.000000
         Rot=    1.000000    0.000000    0.000000    0.000318 Ang=   0.04 deg.
 Initial guess orbital symmetries:
       Occupied  (A') (A') (A') (A') (A') (A') (A') (A') (A') (A')
                 (A') (A') (A') (A") (A') (A") (A') (A') (A') (A')
                 (A') (A') (A') (A') (A') (A') (A') (A") (A') (A')
                 (A") (A') (A') (A") (A") (A') (A') (A') (A") (A")
                 (A')
       Virtual   (A') (A') (A') (A') (A') (A') (A') (A') (A') (A')
                 (A') (A') (A") (A") (A") (A")
 Keep R1 ints in memory in symmetry-blocked form, NReq=2271536.
 Requested convergence on RMS density matrix=1.00D-08 within 128 cycles.
 Requested convergence on MAX density matrix=1.00D-06.
 Requested convergence on             energy=1.00D-06.
 No special actions if energy rises.
 SCF Done:  E(RB3LYP) =  -1208.99422556     A.U. after   10 cycles
            NFock= 10  Conv=0.48D-08     -V/T= 2.0197
 Calling FoFJK, ICntrl=      2127 FMM=F ISym2X=1 I1Cent= 0 IOpClX= 0 NMat=1 NMatS=1 NMatT=0.
 ***** Axes restored to original set *****
 -------------------------------------------------------------------
 Center     Atomic                   Forces (Hartrees/Bohr)
 Number     Number              X              Y              Z
 -------------------------------------------------------------------
      1        6          -0.000493089    0.001401090    0.000000000
      2        7           0.000390735   -0.000651178    0.000000000
      3        6           0.000361452   -0.000318396    0.000000000
      4        6          -0.000856751    0.000125988    0.000000000
      5        6           0.000781747    0.000182774    0.000000000
      6        7          -0.000247957   -0.000928237    0.000000000
      7        1          -0.000201036   -0.000049862    0.000000000
      8       17           0.000297500    0.000004242    0.000000000
      9       17          -0.000237746    0.000144910    0.000000000
     10        6           0.000329758   -0.000000859    0.000000000
     11        1          -0.000040979   -0.000015459    0.000068962
     12        1          -0.000040979   -0.000015459   -0.000068962
     13        1          -0.000042655    0.000120446    0.000000000
 -------------------------------------------------------------------
 Cartesian Forces:  Max     0.001401090 RMS     0.000381623

 GradGradGradGradGradGradGradGradGradGradGradGradGradGradGradGradGradGrad
 Berny optimization.
 Using GEDIIS/GDIIS optimizer.
 FormGI is forming the generalized inverse of G from B-inverse, IUseBI=4.
 Internal  Forces:  Max     0.000808708 RMS     0.000184567
 Search for a local minimum.
 Step number   4 out of a maximum of   65
 All quantities printed in internal units (Hartrees-Bohrs-Radians)
 Mixed Optimization -- En-DIIS/RFO-DIIS
 Swapping is turned off.
 Update second derivatives using D2CorX and points    1    2    3    4
 DE= -2.66D-05 DEPred=-2.45D-05 R= 1.08D+00
 TightC=F SS=  1.41D+00  RLast= 1.11D-02 DXNew= 8.4853D-01 3.3219D-02
 Trust test= 1.08D+00 RLast= 1.11D-02 DXMaxT set to 5.05D-01
 ITU=  1  1  1  0
     Eigenvalues ---    0.00237   0.01219   0.02007   0.02083   0.02109
     Eigenvalues ---    0.02206   0.02229   0.02249   0.07049   0.07101
     Eigenvalues ---    0.15030   0.15989   0.16000   0.16029   0.20576
     Eigenvalues ---    0.22682   0.24945   0.25000   0.25021   0.25515
     Eigenvalues ---    0.28393   0.29487   0.30651   0.33169   0.37201
     Eigenvalues ---    0.37230   0.39106   0.40799   0.44804   0.49402
     Eigenvalues ---    0.51057   0.51755   0.62550
 En-DIIS/RFO-DIIS IScMMF=        0 using points:     4    3
 RFO step:  Lambda=-3.25274557D-06.
 DidBck=F Rises=F RFO-DIIS coefs:    1.11188   -0.11188
 Iteration  1 RMS(Cart)=  0.00056044 RMS(Int)=  0.00000036
 Iteration  2 RMS(Cart)=  0.00000041 RMS(Int)=  0.00000009
 ClnCor:  largest displacement from symmetrization is 2.50D-12 for atom    12.
 Variable       Old X    -DE/DX   Delta X   Delta X   Delta X     New X
                                 (Linear)    (Quad)   (Total)
    R1        2.62240   0.00065   0.00051   0.00142   0.00193   2.62433
    R2        2.61743  -0.00081  -0.00003  -0.00165  -0.00168   2.61576
    R3        3.41806  -0.00028   0.00018  -0.00093  -0.00075   3.41732
    R4        2.60470  -0.00008   0.00045  -0.00010   0.00035   2.60505
    R5        2.68966   0.00015  -0.00006   0.00042   0.00036   2.69002
    R6        3.41802  -0.00028  -0.00013  -0.00089  -0.00101   3.41701
    R7        2.67550  -0.00032  -0.00019  -0.00082  -0.00101   2.67449
    R8        2.89306   0.00022   0.00003   0.00081   0.00084   2.89390
    R9        2.63028   0.00019   0.00058   0.00046   0.00104   2.63132
   R10        2.08668  -0.00008   0.00002  -0.00025  -0.00023   2.08645
   R11        2.08460   0.00004  -0.00032   0.00021  -0.00011   2.08449
   R12        2.08460   0.00004  -0.00032   0.00021  -0.00011   2.08449
   R13        2.07856   0.00011  -0.00033   0.00041   0.00008   2.07863
    A1        2.28067   0.00017  -0.00012   0.00093   0.00081   2.28148
    A2        1.99716  -0.00022   0.00004  -0.00108  -0.00104   1.99612
    A3        2.00536   0.00005   0.00008   0.00015   0.00023   2.00559
    A4        1.95395  -0.00021  -0.00019  -0.00097  -0.00116   1.95278
    A5        2.19159  -0.00011   0.00018  -0.00027  -0.00009   2.19150
    A6        2.01084  -0.00005  -0.00009  -0.00035  -0.00044   2.01040
    A7        2.08075   0.00017  -0.00010   0.00062   0.00052   2.08128
    A8        2.00170   0.00023   0.00009   0.00099   0.00108   2.00278
    A9        2.14398  -0.00016  -0.00006  -0.00068  -0.00074   2.14324
   A10        2.13751  -0.00007  -0.00003  -0.00032  -0.00035   2.13716
   A11        2.18345  -0.00018  -0.00015  -0.00084  -0.00098   2.18247
   A12        2.08875   0.00028   0.00029   0.00174   0.00202   2.09078
   A13        2.01098  -0.00010  -0.00014  -0.00090  -0.00104   2.00994
   A14        1.95501   0.00010   0.00019   0.00015   0.00034   1.95535
   A15        1.92576  -0.00007   0.00007  -0.00043  -0.00036   1.92540
   A16        1.92576  -0.00007   0.00007  -0.00043  -0.00036   1.92540
   A17        1.92337  -0.00003  -0.00011  -0.00023  -0.00034   1.92303
   A18        1.88086   0.00009   0.00005   0.00062   0.00066   1.88153
   A19        1.90368   0.00004  -0.00004   0.00025   0.00021   1.90390
   A20        1.90368   0.00004  -0.00004   0.00025   0.00021   1.90390
    D1        0.00000   0.00000   0.00000   0.00000   0.00000   0.00000
    D2        3.14159   0.00000   0.00000   0.00000   0.00000   3.14159
    D3        0.00000   0.00000   0.00000   0.00000   0.00000   0.00000
    D4        3.14159   0.00000   0.00000   0.00000   0.00000   3.14159
    D5        0.00000   0.00000   0.00000   0.00000   0.00000   0.00000
    D6        3.14159   0.00000   0.00000   0.00000   0.00000   3.14159
    D7        0.00000   0.00000   0.00000   0.00000   0.00000   0.00000
    D8        3.14159   0.00000   0.00000   0.00000   0.00000   3.14159
    D9        3.14159   0.00000   0.00000   0.00000   0.00000   3.14159
   D10        0.00000   0.00000   0.00000   0.00000   0.00000   0.00000
   D11        0.00000   0.00000   0.00000   0.00000   0.00000   0.00000
   D12        3.14159   0.00000   0.00000   0.00000   0.00000   3.14159
   D13        3.14159   0.00000   0.00000   0.00000   0.00000   3.14159
   D14        0.00000   0.00000   0.00000   0.00000   0.00000   0.00000
   D15       -1.03826  -0.00001  -0.00007  -0.00011  -0.00019  -1.03844
   D16        1.03826   0.00001   0.00007   0.00011   0.00019   1.03844
   D17        3.14159   0.00000   0.00000   0.00000   0.00000   3.14159
   D18        2.10334  -0.00001  -0.00007  -0.00011  -0.00019   2.10315
   D19       -2.10334   0.00001   0.00007   0.00011   0.00019  -2.10315
   D20        0.00000   0.00000   0.00000   0.00000   0.00000   0.00000
   D21        0.00000   0.00000   0.00000   0.00000   0.00000   0.00000
   D22        3.14159   0.00000   0.00000   0.00000   0.00000   3.14159
         Item               Value     Threshold  Converged?
 Maximum Force            0.000809     0.000450     NO 
 RMS     Force            0.000185     0.000300     YES
 Maximum Displacement     0.001977     0.001800     NO 
 RMS     Displacement     0.000560     0.001200     YES
 Predicted change in Energy=-3.000710D-06
 GradGradGradGradGradGradGradGradGradGradGradGradGradGradGradGradGradGrad

                          Input orientation:                          
 ---------------------------------------------------------------------
 Center     Atomic      Atomic             Coordinates (Angstroms)
 Number     Number       Type             X           Y           Z
 ---------------------------------------------------------------------
      1          6           0       -1.424466    0.086833    0.000000
      2          7           0       -0.460617   -0.912954    0.000000
      3          6           0        0.816947   -0.395089    0.000000
      4          6           0        1.149222    0.989086    0.000000
      5          6           0        0.037775    1.865270    0.000000
      6          7           0       -1.295904    1.465049    0.000000
      7          1           0        0.200151    2.957365    0.000000
      8         17           0       -3.128237   -0.519260    0.000000
      9         17           0        2.144813   -1.622431    0.000000
     10          6           0        2.594547    1.495232    0.000000
     11          1           0        3.129561    1.126284    0.891286
     12          1           0        3.129561    1.126284   -0.891286
     13          1           0        2.611470    2.595067    0.000000
 ---------------------------------------------------------------------
                    Distance matrix (angstroms):
                    1          2          3          4          5
     1  C    0.000000
     2  N    1.388733   0.000000
     3  C    2.292636   1.378533   0.000000
     4  C    2.727257   2.491855   1.423499   0.000000
     5  C    2.302387   2.822574   2.390886   1.415279   0.000000
     6  N    1.384199   2.520437   2.815005   2.491020   1.392435
     7  H    3.298383   3.926319   3.408722   2.185145   1.104100
     8  Cl   1.808366   2.696515   3.947138   4.535611   3.963536
     9  Cl   3.957441   2.700300   1.808202   2.794857   4.074760
    10  C    4.258644   3.890165   2.594837   1.531387   2.583411
    11  H    4.755419   4.224009   2.908118   2.175995   3.301459
    12  H    4.755419   4.224009   2.908118   2.175995   3.301459
    13  H    4.751843   4.663038   3.487312   2.171944   2.675165
                    6          7          8          9         10
     6  N    0.000000
     7  H    2.113098   0.000000
     8  Cl   2.700913   4.813012   0.000000
     9  Cl   4.622885   4.975564   5.387211   0.000000
    10  C    3.890568   2.805525   6.066996   3.149934   0.000000
    11  H    4.527017   3.567729   6.531634   3.052794   1.103065
    12  H    4.527017   3.567729   6.531634   3.052794   1.103065
    13  H    4.067494   2.438385   6.530182   4.243237   1.099965
                   11         12         13
    11  H    0.000000
    12  H    1.782572   0.000000
    13  H    1.794473   1.794473   0.000000
 Stoichiometry    C5H4Cl2N2
 Framework group  CS[SG(C5H2Cl2N2),X(H2)]
 Deg. of freedom    22
 Full point group                 CS      NOp   2
 Largest Abelian subgroup         CS      NOp   2
 Largest concise Abelian subgroup CS      NOp   2
                         Standard orientation:                         
 ---------------------------------------------------------------------
 Center     Atomic      Atomic             Coordinates (Angstroms)
 Number     Number       Type             X           Y           Z
 ---------------------------------------------------------------------
      1          6           0        0.517220   -1.318746    0.000000
      2          7           0        1.012090   -0.021177    0.000000
      3          6           0        0.000000    0.914786    0.000000
      4          6           0       -1.394054    0.626752    0.000000
      5          6           0       -1.714278   -0.751823    0.000000
      6          7           0       -0.784791   -1.788611    0.000000
      7          1           0       -2.771723   -1.069386    0.000000
      8         17           0        1.790446   -2.602912    0.000000
      9         17           0        0.545980    2.638591    0.000000
     10          6           0       -2.466894    1.719529    0.000000
     11          1           0       -2.360550    2.360663    0.891286
     12          1           0       -2.360550    2.360663   -0.891286
[...]
     Eigenvalues ---    0.18846   0.19733   0.20148   0.21329   0.21975
     Eigenvalues ---    0.26597   0.27130   0.28285   0.35846   0.40626
     Eigenvalues ---    0.41259   0.41450   0.42155   0.43139   0.43802
     Eigenvalues ---    0.50371   0.50853   0.55619
 Angle between quadratic step and forces=  20.35 degrees.
 Linear search not attempted -- first point.
 Iteration  1 RMS(Cart)=  0.00046409 RMS(Int)=  0.00000018
 Iteration  2 RMS(Cart)=  0.00000025 RMS(Int)=  0.00000002
 ClnCor:  largest displacement from symmetrization is 7.94D-10 for atom    12.
 Variable       Old X    -DE/DX   Delta X   Delta X   Delta X     New X
                                 (Linear)    (Quad)   (Total)
    R1        2.62433   0.00021   0.00000   0.00133   0.00133   2.62565
    R2        2.61576  -0.00041   0.00000  -0.00182  -0.00182   2.61394
    R3        3.41732  -0.00003   0.00000  -0.00008  -0.00008   3.41724
    R4        2.60505  -0.00023   0.00000  -0.00101  -0.00101   2.60404
    R5        2.69002   0.00015   0.00000   0.00100   0.00100   2.69102
    R6        3.41701  -0.00005   0.00000  -0.00010  -0.00010   3.41691
    R7        2.67449  -0.00018   0.00000  -0.00096  -0.00096   2.67353
    R8        2.89390   0.00005   0.00000   0.00015   0.00015   2.89406
    R9        2.63132   0.00002   0.00000   0.00057   0.00057   2.63190
   R10        2.08645  -0.00001   0.00000  -0.00005  -0.00005   2.08640
   R11        2.08449   0.00008   0.00000   0.00018   0.00018   2.08468
   R12        2.08449   0.00008   0.00000   0.00018   0.00018   2.08468
   R13        2.07863   0.00007   0.00000   0.00018   0.00018   2.07881
    A1        2.28148   0.00000   0.00000  -0.00010  -0.00010   2.28138
    A2        1.99612  -0.00011   0.00000  -0.00092  -0.00092   1.99520
    A3        2.00559   0.00011   0.00000   0.00102   0.00102   2.00661
    A4        1.95278  -0.00002   0.00000  -0.00022  -0.00022   1.95256
    A5        2.19150  -0.00003   0.00000   0.00006   0.00006   2.19156
    A6        2.01040   0.00002   0.00000   0.00023   0.00023   2.01063
    A7        2.08128   0.00001   0.00000  -0.00028  -0.00028   2.08100
    A8        2.00278   0.00002   0.00000   0.00013   0.00013   2.00292
    A9        2.14324  -0.00006   0.00000  -0.00054  -0.00054   2.14270
   A10        2.13716   0.00004   0.00000   0.00041   0.00041   2.13757
   A11        2.18247  -0.00005   0.00000  -0.00047  -0.00047   2.18200
   A12        2.09078   0.00003   0.00000   0.00047   0.00047   2.09125
   A13        2.00994   0.00002   0.00000   0.00000   0.00000   2.00994
   A14        1.95535   0.00008   0.00000   0.00061   0.00061   1.95596
   A15        1.92540  -0.00001   0.00000  -0.00011  -0.00011   1.92528
   A16        1.92540  -0.00001   0.00000  -0.00011  -0.00011   1.92528
   A17        1.92303   0.00000   0.00000   0.00004   0.00004   1.92307
   A18        1.88153   0.00001   0.00000   0.00005   0.00005   1.88158
   A19        1.90390   0.00001   0.00000   0.00007   0.00007   1.90397
   A20        1.90390   0.00001   0.00000   0.00007   0.00007   1.90397
    D1        0.00000   0.00000   0.00000   0.00000   0.00000   0.00000
    D2        3.14159   0.00000   0.00000   0.00000   0.00000   3.14159
    D3        0.00000   0.00000   0.00000   0.00000   0.00000   0.00000
    D4        3.14159   0.00000   0.00000   0.00000   0.00000   3.14159
    D5        0.00000   0.00000   0.00000   0.00000   0.00000   0.00000
    D6        3.14159   0.00000   0.00000   0.00000   0.00000   3.14159
    D7        0.00000   0.00000   0.00000   0.00000   0.00000   0.00000
    D8        3.14159   0.00000   0.00000   0.00000   0.00000   3.14159
    D9        3.14159   0.00000   0.00000   0.00000   0.00000   3.14159
   D10        0.00000   0.00000   0.00000   0.00000   0.00000   0.00000
   D11        0.00000   0.00000   0.00000   0.00000   0.00000   0.00000
   D12        3.14159   0.00000   0.00000   0.00000   0.00000   3.14159
   D13        3.14159   0.00000   0.00000   0.00000   0.00000   3.14159
   D14        0.00000   0.00000   0.00000   0.00000   0.00000   0.00000
   D15       -1.03844   0.00000   0.00000   0.00004   0.00004  -1.03840
   D16        1.03844   0.00000   0.00000  -0.00004  -0.00004   1.03840
   D17        3.14159   0.00000   0.00000   0.00000   0.00000   3.14159
   D18        2.10315   0.00000   0.00000   0.00004   0.00004   2.10319
   D19       -2.10315   0.00000   0.00000  -0.00004  -0.00004  -2.10319
   D20        0.00000   0.00000   0.00000   0.00000   0.00000   0.00000
   D21        0.00000   0.00000   0.00000   0.00000   0.00000   0.00000
   D22        3.14159   0.00000   0.00000   0.00000   0.00000   3.14159
         Item               Value     Threshold  Converged?
 Maximum Force            0.000406     0.000450     YES
 RMS     Force            0.000084     0.000300     YES
 Maximum Displacement     0.001407     0.001800     YES
 RMS     Displacement     0.000464     0.001200     YES
 Predicted change in Energy=-1.002955D-06
 Optimization completed.
    -- Stationary point found.
                           ----------------------------
                           !   Optimized Parameters   !
                           ! (Angstroms and Degrees)  !
 --------------------------                            --------------------------
 ! Name  Definition              Value          Derivative Info.                !
 --------------------------------------------------------------------------------
 ! R1    R(1,2)                  1.3887         -DE/DX =    0.0002              !
 ! R2    R(1,6)                  1.3842         -DE/DX =   -0.0004              !
 ! R3    R(1,8)                  1.8084         -DE/DX =    0.0                 !
 ! R4    R(2,3)                  1.3785         -DE/DX =   -0.0002              !
 ! R5    R(3,4)                  1.4235         -DE/DX =    0.0002              !
 ! R6    R(3,9)                  1.8082         -DE/DX =   -0.0001              !
 ! R7    R(4,5)                  1.4153         -DE/DX =   -0.0002              !
 ! R8    R(4,10)                 1.5314         -DE/DX =    0.0                 !
 ! R9    R(5,6)                  1.3924         -DE/DX =    0.0                 !
 ! R10   R(5,7)                  1.1041         -DE/DX =    0.0                 !
 ! R11   R(10,11)                1.1031         -DE/DX =    0.0001              !
 ! R12   R(10,12)                1.1031         -DE/DX =    0.0001              !
 ! R13   R(10,13)                1.1            -DE/DX =    0.0001              !
 ! A1    A(2,1,6)              130.7193         -DE/DX =    0.0                 !
 ! A2    A(2,1,8)              114.3692         -DE/DX =   -0.0001              !
 ! A3    A(6,1,8)              114.9116         -DE/DX =    0.0001              !
 ! A4    A(1,2,3)              111.8862         -DE/DX =    0.0                 !
 ! A5    A(2,3,4)              125.5639         -DE/DX =    0.0                 !
 ! A6    A(2,3,9)              115.1876         -DE/DX =    0.0                 !
 ! A7    A(4,3,9)              119.2485         -DE/DX =    0.0                 !
 ! A8    A(3,4,5)              114.7511         -DE/DX =    0.0                 !
 ! A9    A(3,4,10)             122.7986         -DE/DX =   -0.0001              !
 ! A10   A(5,4,10)             122.4503         -DE/DX =    0.0                 !
 ! A11   A(4,5,6)              125.0465         -DE/DX =   -0.0001              !
 ! A12   A(4,5,7)              119.7927         -DE/DX =    0.0                 !
 ! A13   A(6,5,7)              115.1608         -DE/DX =    0.0                 !
 ! A14   A(1,6,5)              112.0331         -DE/DX =    0.0001              !
 ! A15   A(4,10,11)            110.3172         -DE/DX =    0.0                 !
 ! A16   A(4,10,12)            110.3172         -DE/DX =    0.0                 !
 ! A17   A(4,10,13)            110.1815         -DE/DX =    0.0                 !
 ! A18   A(11,10,12)           107.8036         -DE/DX =    0.0                 !
 ! A19   A(11,10,13)           109.0852         -DE/DX =    0.0                 !
 ! A20   A(12,10,13)           109.0852         -DE/DX =    0.0                 !
 ! D1    D(6,1,2,3)              0.0            -DE/DX =    0.0                 !
 ! D2    D(8,1,2,3)            180.0            -DE/DX =    0.0                 !
 ! D3    D(2,1,6,5)              0.0            -DE/DX =    0.0                 !
 ! D4    D(8,1,6,5)            180.0            -DE/DX =    0.0                 !
 ! D5    D(1,2,3,4)              0.0            -DE/DX =    0.0                 !
 ! D6    D(1,2,3,9)            180.0            -DE/DX =    0.0                 !
 ! D7    D(2,3,4,5)              0.0            -DE/DX =    0.0                 !
 ! D8    D(2,3,4,10)           180.0            -DE/DX =    0.0                 !
 ! D9    D(9,3,4,5)            180.0            -DE/DX =    0.0                 !
 ! D10   D(9,3,4,10)             0.0            -DE/DX =    0.0                 !
 ! D11   D(3,4,5,6)              0.0            -DE/DX =    0.0                 !
 ! D12   D(3,4,5,7)            180.0            -DE/DX =    0.0                 !
 ! D13   D(10,4,5,6)           180.0            -DE/DX =    0.0                 !
 ! D14   D(10,4,5,7)             0.0            -DE/DX =    0.0                 !
 ! D15   D(3,4,10,11)          -59.4983         -DE/DX =    0.0                 !
 ! D16   D(3,4,10,12)           59.4983         -DE/DX =    0.0                 !
 ! D17   D(3,4,10,13)          180.0            -DE/DX =    0.0                 !
 ! D18   D(5,4,10,11)          120.5017         -DE/DX =    0.0                 !
 ! D19   D(5,4,10,12)         -120.5017         -DE/DX =    0.0                 !
 ! D20   D(5,4,10,13)            0.0            -DE/DX =    0.0                 !
 ! D21   D(4,5,6,1)              0.0            -DE/DX =    0.0                 !
 ! D22   D(7,5,6,1)            180.0            -DE/DX =    0.0                 !
 --------------------------------------------------------------------------------
 GradGradGradGradGradGradGradGradGradGradGradGradGradGradGradGradGradGrad

 1|1|UNPC-DESKTOP-KC5UJLK|Freq|RB3LYP|STO-3G|C5H4Cl2N2|23122|01-Apr-202
 2|0||#N Geom=AllCheck Guess=TCheck SCRF=Check GenChk RB3LYP/STO-3G Fre
 q||Energy Calculation(GC)||0,1|C,-1.4244659193,0.0868333943,0.|N,-0.46
 06167496,-0.9129540081,0.|C,0.8169469677,-0.395089482,0.|C,1.149222437
 5,0.9890862958,0.|C,0.0377749803,1.8652699919,0.|N,-1.2959035391,1.465
 0489345,0.|H,0.2001506295,2.9573647517,0.|Cl,-3.1282372624,-0.51926042
 78,0.|Cl,2.1448131911,-1.6224310017,0.|C,2.5945471778,1.4952317265,0.|
 H,3.1295605509,1.1262839886,0.8912859033|H,3.1295605509,1.1262839886,-
 0.8912859033|H,2.6114699349,2.595066887,0.||Version=IA32W-G09RevD.01|S
 tate=1-A'|HF=-1208.9942296|RMSD=5.968e-009|RMSF=1.658e-004|ZeroPoint=0
 .0884944|Thermal=0.0967888|Dipole=1.2055964,1.1350659,0.|DipoleDeriv=1
 .6393525,0.3730532,0.,0.4925358,0.351574,0.,0.,0.,0.1961276,-0.9826607
 ,0.0875841,0.,0.110458,-0.1984795,0.,0.,0.,-0.1429671,0.8728205,-0.640
 8371,0.,-0.5836773,0.8239042,0.,0.,0.,0.1691116,0.0453274,0.373208,0.,
 0.3628543,-0.5284968,0.,0.,0.,0.0775218,0.1943574,-0.1820274,0.,-0.022
 7343,0.3143831,0.,0.,0.,0.0110702,-0.5616336,-0.1158259,0.,-0.4527836,
 -0.3601097,0.,0.,0.,-0.1598959,0.0354021,-0.0112625,0.,-0.0102591,0.12
 5254,0.,0.,0.,0.0709091,-0.7621326,-0.1641266,0.,-0.2118201,-0.2196398
 ,0.,0.,0.,-0.1453402,-0.5107182,0.2953864,0.,0.3108214,-0.4341157,0.,0
 .,0.,-0.1515146,-0.0300796,0.0335418,0.,0.1104617,0.0250115,0.,0.,0.,-
 0.085119,0.0197035,-0.0308085,-0.0177774,-0.0489091,0.0449619,0.021473
 8,0.0076919,0.0293379,0.0422323,0.0197035,-0.0308085,0.0177774,-0.0489
 091,0.0449619,-0.0214738,-0.0076919,-0.0293379,0.0422323,0.0205579,0.0
 12923,0.,-0.0080384,0.0107911,0.,0.,0.,0.075632|Polar=86.0386362,0.679
 5233,56.1776195,0.,0.,13.5041322|PG=CS [SG(C5H2Cl2N2),X(H2)]|NImag=0||
 0.57903937,0.01874200,0.54063989,0.,0.,0.12826329,-0.17069873,0.076864
 68,0.,0.56760742,0.09407602,-0.16688158,0.,-0.03706017,0.33343865,0.,0
 .,-0.05694970,0.,0.,0.06854173,-0.11898228,0.06475411,0.,-0.26945546,-
 0.07273923,0.,0.59729265,0.01096568,0.06286663,0.,-0.07184590,-0.12320
 423,0.,0.01359543,0.61718656,0.,0.,0.00000317,0.,0.,-0.05262347,0.,0.,
 0.12485297,-0.00353179,0.03425753,0.,0.00529915,-0.03917881,0.,-0.1308
 3668,-0.09428322,0.,0.73499963,0.02988069,-0.09128807,0.,-0.10621379,0
 .00660849,0.,-0.00326687,-0.29422343,0.,0.01001468,0.66362319,0.,0.,-0
 .00988392,0.,0.,0.01848670,0.,0.,-0.06622956,0.,0.,0.15975333,-0.00277
 469,-0.12206624,0.,-0.09702627,0.03074188,0.,0.07583866,0.10050406,0.,
 -0.24978172,0.04153392,0.,0.64849059,-0.06154896,-0.04237638,0.,0.0125
 7595,0.00471853,0.,0.01691514,-0.05748886,0.,0.14897501,-0.22567962,0.
 ,0.02009492,0.84374293,0.,0.,0.00117844,0.,0.,-0.00790971,0.,0.,0.0070
 4685,0.,0.,-0.06423337,0.,0.,0.14482489,-0.10054526,-0.01302967,0.,0.0
 5416465,0.00485124,0.,-0.03333325,-0.05093647,0.,-0.07277041,0.0608008
 1,0.,-0.28805895,-0.07964495,0.,0.46816428,-0.02852678,-0.25734767,0.,
 0.09731690,-0.06614828,0.,-0.06671416,-0.06202685,0.,-0.01717705,0.079
 69029,0.,-0.04326469,-0.13009755,0.,0.10883857,0.45879461,0.,0.,-0.060
 66362,0.,0.,0.02981343,0.,0.,-0.00830964,0.,0.,0.01898809,0.,0.,-0.053
 96127,0.,0.,0.07378417,-0.00460270,-0.00313447,0.,0.00051478,-0.000514
 63,0.,-0.00442413,0.00121086,0.,0.00547992,0.02676114,0.,-0.06419632,-
 0.04162642,0.,-0.00885973,-0.03452607,0.,0.07502440,-0.00061325,0.0012
 3966,0.,0.00109551,0.00044156,0.,0.00188904,-0.00173500,0.,-0.00763579
 ,-0.00827144,0.,-0.04084274,-0.39739800,0.,-0.00350309,-0.00172365,0.,
 0.05064869,0.40593131,0.,0.,0.01153894,0.,0.,-0.00397456,0.,0.,0.00878
 749,0.,0.,0.00643315,0.,0.,-0.04205318,0.,0.,-0.00440867,0.,0.,0.02756
 571,-0.18240513,-0.05693263,0.,-0.04573327,0.00224231,0.,0.00414376,-0
 .00037612,0.,-0.00111088,-0.00067454,0.,0.00368249,0.00158133,0.,-0.01
 821336,-0.01998723,0.,-0.00057840,0.00050052,0.,0.24200557,-0.05650469
 ,-0.04403517,0.,0.01413878,0.00557157,0.,0.00283242,-0.00307690,0.,-0.
 00104740,0.00200195,0.,0.00296547,-0.00305158,0.,-0.03390754,-0.021394
 26,0.,-0.00118583,0.00029436,0.,0.07298169,0.06266443,0.,0.,-0.0219078
 1,0.,0.,-0.00016643,0.,0.,0.00673326,0.,0.,-0.00079970,0.,0.,0.0067073
 4,0.,0.,0.00000091,0.,0.,0.00014036,0.,0.,0.01055724,0.00480020,-0.001
 17535,0.,-0.04844654,0.01573946,0.,-0.10899777,0.09577452,0.,-0.007589
 80,0.00623549,0.,0.00384387,-0.00239867,0.,-0.00220346,0.00215553,0.,-
 0.00022092,-0.00018603,0.,-0.00146835,0.00005776,0.,0.15948868,-0.0079
 3677,-0.00075200,0.,0.01285690,0.00974998,0.,0.07865326,-0.12740680,0.
 ,0.03040898,-0.02363403,0.,-0.00912108,-0.00225384,0.,0.00312813,0.001
 36469,0.,0.00162451,-0.00021347,0.,0.00074864,0.00061027,0.,-0.1128864
 1,0.14338262,0.,0.,0.00812242,0.,0.,-0.00157750,0.,0.,-0.02323514,0.,0
 .,0.00563301,0.,0.,0.00550689,0.,0.,-0.00316968,0.,0.,-0.00066922,0.,0
 .,0.00010822,0.,0.,0.01096295,-0.00132176,0.00086381,0.,0.00451360,0.0
 0247407,0.,-0.00645953,-0.01052961,0.,-0.23363747,-0.04722107,0.,-0.03
 025185,-0.00777346,0.,0.00273203,0.00234491,0.,0.00206999,-0.00144154,
 0.,0.00027897,-0.00010450,0.,-0.00061726,0.00289822,0.,0.58392400,0.00
 154251,-0.00280356,0.,-0.00133713,-0.00484447,0.,-0.03232534,-0.011744
 51,0.,-0.05320908,-0.11162380,0.,0.01796331,0.00986319,0.,0.00337886,-
 0.00090258,0.,0.00144955,0.00141115,0.,0.00026502,0.00057397,0.,-0.003
 56256,-0.00019440,0.,-0.04519356,0.72103247,0.,0.,0.00024024,0.,0.,0.0
 0662257,0.,0.,0.00063382,0.,0.,-0.07714292,0.,0.,0.00368289,0.,0.,0.00
 881619,0.,0.,-0.00360976,0.,0.,-0.00146594,0.,0.,-0.00198239,0.,0.,0.6
 8375567,0.00018008,0.00054417,0.00003709,-0.00011403,0.00040908,0.0009
 5035,0.00083532,0.00280489,0.00011124,-0.02230173,0.00990679,-0.026735
 59,-0.00085953,-0.00273100,-0.00065150,-0.00085612,-0.00026875,0.00141
 880,-0.00008808,-0.00015043,-0.00045719,-0.00021778,-0.00013794,-0.000
 21805,0.00054533,-0.00039440,-0.00011444,-0.13083684,0.05573511,-0.131
 71331,0.14168275,-0.00010694,0.00032607,0.00003558,0.00077413,0.000328
 01,0.00056205,-0.00201315,0.00045483,-0.00025357,-0.00594847,0.0046179
 1,-0.01244042,-0.00078996,-0.00068650,-0.00005035,0.00006563,-0.000091
 30,0.00047389,-0.00010620,-0.00006760,-0.00003789,-0.00018328,-0.00010
 405,-0.00009214,0.00039550,-0.00035879,0.00005782,0.05280839,-0.099587
 61,0.09050275,-0.05597921,0.09643795,-0.00015538,-0.00022062,-0.000031
 97,-0.00009336,0.00004993,-0.00015351,0.00048626,0.00040584,0.00068719
 ,0.00243752,-0.00237030,0.00509151,0.00120745,0.00041588,-0.00042491,0
 .00025188,-0.00005461,-0.00037899,0.00006504,-0.00000675,0.00015713,0.
 00015122,0.00005755,0.00005359,0.00030615,0.00026377,0.00005416,-0.127
 52441,0.09135195,-0.27782049,0.13714904,-0.09764074,0.28860830,0.00018
 008,0.00054417,-0.00003709,-0.00011403,0.00040908,-0.00095035,0.000835
 32,0.00280489,-0.00011124,-0.02230173,0.00990679,0.02673559,-0.0008595
 3,-0.00273100,0.00065150,-0.00085612,-0.00026875,-0.00141880,-0.000088
 08,-0.00015043,0.00045719,-0.00021778,-0.00013794,0.00021805,0.0005453
 3,-0.00039440,0.00011444,-0.13083684,0.05573511,0.13171331,0.01081713,
 -0.00727226,-0.01756912,0.14168275,-0.00010694,0.00032607,-0.00003558,
 0.00077413,0.00032801,-0.00056205,-0.00201315,0.00045483,0.00025357,-0
 .00594847,0.00461791,0.01244042,-0.00078996,-0.00068650,0.00005035,0.0
 0006563,-0.00009130,-0.00047389,-0.00010620,-0.00006760,0.00003789,-0.
 00018328,-0.00010405,0.00009214,0.00039550,-0.00035879,-0.00005782,0.0
 5280839,-0.09958761,-0.09050275,-0.00727226,0.00462652,0.01339522,-0.0
 5597921,0.09643795,0.00015538,0.00022062,-0.00003197,0.00009336,-0.000
 04993,-0.00015351,-0.00048626,-0.00040584,0.00068719,-0.00243752,0.002
 37030,0.00509151,-0.00120745,-0.00041588,-0.00042491,-0.00025188,0.000
 05461,-0.00037899,-0.00006504,0.00000675,0.00015713,-0.00015122,-0.000
 05755,0.00005359,-0.00030615,-0.00026377,0.00005416,0.12752441,-0.0913
 5195,-0.27782049,0.01756912,-0.01339522,-0.01947976,-0.13714904,0.0976
 4074,0.28860830,0.00066261,-0.00023210,0.,-0.00051126,-0.00145030,0.,-
 0.00645660,0.00031100,0.,-0.00191650,-0.03766405,0.,0.00195324,-0.0016
 8791,0.,0.00063571,0.00007757,0.,-0.00003074,0.00038954,0.,-0.00016583
 ,0.00004972,0.,0.00032067,0.00041443,0.,-0.05955705,-0.00044180,0.,0.0
 0121350,0.01835580,0.00328770,0.00121350,0.01835580,-0.00328770,0.0626
 3876,0.00013744,0.00008612,0.,0.00006000,-0.00010623,0.,0.00043249,-0.
 00005626,0.,0.00077210,-0.00643934,0.,0.00307112,0.00139418,0.,-0.0001
 0715,-0.00002614,0.,-0.00049495,0.00015871,0.,0.00001756,0.00004946,0.
 ,-0.00054474,0.00006456,0.,-0.00193406,-0.40159225,0.,-0.00246605,-0.0
 0589543,-0.00564713,-0.00246605,-0.00589543,0.00564713,0.00352229,0.41
 825805,0.,0.,0.00012251,0.,0.,0.00004395,0.,0.,0.00096586,0.,0.,-0.001
 18783,0.,0.,0.00006007,0.,0.,-0.00013192,0.,0.,-0.00006449,0.,0.,-0.00
 001461,0.,0.,0.00019213,0.,0.,-0.06390940,0.00265444,0.03227824,0.0036
 3775,-0.00265444,-0.03227824,0.00363775,0.,0.,0.05664822||0.00018509,-
 0.00063982,0.,-0.00032427,0.00009206,0.,0.00016487,0.00029321,0.,0.000
 21406,-0.00026365,0.,-0.00015770,0.00002620,0.,-0.00002523,0.00048207,
 0.,0.00001122,0.00000762,0.,-0.00005495,0.00006663,0.,0.00002605,-0.00
 004124,0.,0.00000601,0.00001188,0.,-0.00002681,0.00002294,-0.00006522,
 -0.00002681,0.00002294,0.00006522,0.00000846,-0.00008085,0.|||@


 THE MORE POWERFUL THE METHOD, THE MORE CATASTROPHIC THE ERRORS.
     -- M.D. KAMEN
 Job cpu time:       0 days  0 hours  0 minutes 21.0 seconds.
 File lengths (MBytes):  RWF=      8 Int=      0 D2E=      0 Chk=      1 Scr=      1
 Normal termination of Gaussian 09 at Fri Apr 01 14:41:26 2022.
