 Entering Link 1 = C:\G09W\l1.exe PID=     11856.
  
 Copyright (c) 1988,1990,1992,1993,1995,1998,2003,2009,2013,
            Gaussian, Inc.  All Rights Reserved.
  
 This is part of the Gaussian(R) 09 program.  It is based on
 the Gaussian(R) 03 system (copyright 2003, Gaussian, Inc.),
 the Gaussian(R) 98 system (copyright 1998, Gaussian, Inc.),
 the Gaussian(R) 94 system (copyright 1995, Gaussian, Inc.),
 the Gaussian 92(TM) system (copyright 1992, Gaussian, Inc.),
 the Gaussian 90(TM) system (copyright 1990, Gaussian, Inc.),
 the Gaussian 88(TM) system (copyright 1988, Gaussian, Inc.),
 the Gaussian 86(TM) system (copyright 1986, Carnegie Mellon
 University), and the Gaussian 82(TM) system (copyright 1983,
 Carnegie Mellon University). Gaussian is a federally registered
 trademark of Gaussian, Inc.
  
 This software contains proprietary and confidential information,
 including trade secrets, belonging to Gaussian, Inc.
  
 This software is provided under written license and may be
 used, copied, transmitted, or stored only in accord with that
 written license.
  
 The following legend is applicable only to US Government
 contracts under FAR:
  
                    RESTRICTED RIGHTS LEGEND
  
 Use, reproduction and disclosure by the US Government is
 subject to restrictions as set forth in subparagraphs (a)
 and (c) of the Commercial Computer Software - Restricted
 Rights clause in FAR 52.227-19.
  
 Gaussian, Inc.
 340 Quinnipiac St., Bldg. 40, Wallingford CT 06492
  
  
 ---------------------------------------------------------------
 Warning -- This program may not be used in any manner that
 competes with the business of Gaussian, Inc. or will provide
 assistance to any competitor of Gaussian, Inc.  The licensee
 of this program is prohibited from giving any competitor of
 Gaussian, Inc. access to this program.  By using this program,
 the user acknowledges that Gaussian, Inc. is engaged in the
 business of creating and licensing software in the field of
 computational chemistry and represents and warrants to the
 licensee that it is not a competitor of Gaussian, Inc. and that
 it will not use this program in any manner prohibited above.
 ---------------------------------------------------------------
  

 Cite this work as:
 Gaussian 09, Revision D.01,
 M. J. Frisch, G. W. Trucks, H. B. Schlegel, G. E. Scuseria, 
 M. A. Robb, J. R. Cheeseman, G. Scalmani, V. Barone, B. Mennucci, 
 G. A. Petersson, H. Nakatsuji, M. Caricato, X. Li, H. P. Hratchian, 
 A. F. Izmaylov, J. Bloino, G. Zheng, J. L. Sonnenberg, M. Hada, 
 M. Ehara, K. Toyota, R. Fukuda, J. Hasegawa, M. Ishida, T. Nakajima, 
 Y. Honda, O. Kitao, H. Nakai, T. Vreven, J. A. Montgomery, Jr., 
 J. E. Peralta, F. Ogliaro, M. Bearpark, J. J. Heyd, E. Brothers, 
 K. N. Kudin, V. N. Staroverov, T. Keith, R. Kobayashi, J. Normand, 
 K. Raghavachari, A. Rendell, J. C. Burant, S. S. Iyengar, J. Tomasi, 
 M. Cossi, N. Rega, J. M. Millam, M. Klene, J. E. Knox, J. B. Cross, 
 V. Bakken, C. Adamo, J. Jaramillo, R. Gomperts, R. E. Stratmann, 
 O. Yazyev, A. J. Austin, R. Cammi, C. Pomelli, J. W. Ochterski, 
 R. L. Martin, K. Morokuma, V. G. Zakrzewski, G. A. Voth, 
 P. Salvador, J. J. Dannenberg, S. Dapprich, A. D. Daniels, 
 O. Farkas, J. B. Foresman, J. V. Ortiz, J. Cioslowski, 
 and D. J. Fox, Gaussian, Inc., Wallingford CT, 2013.
 
 ******************************************
 Gaussian 09:  IA32W-G09RevD.01 24-Apr-2013
                05-Feb-2022 
 ******************************************
 %chk=D:\mindmap\gaussian\calculate\ch3n2_dihedral\energy.chk
 %nprocshared=4
 Will use up to    4 processors via shared memory.
 %mem=1GB
 -------------------------------------------------------------
 # apfd/6-311+g(2d,p) geom=connectivity pop=full int=ultrafine
 -------------------------------------------------------------
 1/38=1,57=2/1;
 2/12=2,17=6,18=5,40=1/2;
 3/5=4,6=6,7=112,11=2,16=1,25=1,30=1,74=-44,75=-5/1,2,3;
 4//1;
 5/5=2,38=5/2;
 6/7=3,28=1/1;
 99/5=1,9=1/99;
 ----------------------
 Energy Calculation(GC)
 ----------------------
 Symbolic Z-matrix:
 Charge =  0 Multiplicity = 1
 H                    -0.59038  -1.91572  -0.48924 
 H                    -0.20604  -1.15273   0.85535 
 N                    -0.6165   -0.2399   -0.48679 
 N                    -1.12936   0.76801  -0.97488 
 C                    -0.17808  -1.19471  -0.03652 
 
                          Input orientation:                          
 ---------------------------------------------------------------------
 Center     Atomic      Atomic             Coordinates (Angstroms)
 Number     Number       Type             X           Y           Z
 ---------------------------------------------------------------------
      1          1           0       -0.590384   -1.915716   -0.489242
      2          1           0       -0.206038   -1.152732    0.855349
      3          7           0       -0.616505   -0.239899   -0.486794
      4          7           0       -1.129362    0.768009   -0.974879
      5          6           0       -0.178079   -1.194707   -0.036525
 ---------------------------------------------------------------------
                    Distance matrix (angstroms):
                    1          2          3          4          5
     1  H    0.000000
     2  H    1.593044   0.000000
     3  N    1.676022   1.674244   0.000000
     4  N    2.780057   2.809182   1.231717   0.000000
     5  C    0.945939   0.893298   1.143074   2.374385   0.000000
 Stoichiometry    CH2N2
 Framework group  C1[X(CH2N2)]
 Deg. of freedom     9
 Full point group                 C1      NOp   1
 Largest Abelian subgroup         C1      NOp   1
 Largest concise Abelian subgroup C1      NOp   1
                         Standard orientation:                         
 ---------------------------------------------------------------------
 Center     Atomic      Atomic             Coordinates (Angstroms)
 Number     Number       Type             X           Y           Z
 ---------------------------------------------------------------------
      1          1           0       -1.362283    0.838012    0.254422
      2          1           0       -1.411547   -0.753813    0.292585
      3          7           0        0.051195   -0.011881   -0.043594
      4          7           0        1.280550    0.004860    0.030792
      5          6           0       -1.091397   -0.005842   -0.076232
 ---------------------------------------------------------------------
 Rotational constants (GHZ):    332.1241434     12.2531800     11.9506745
 Standard basis: 6-311+G(2d,p) (5D, 7F)
 There are    99 symmetry adapted cartesian basis functions of A   symmetry.
 There are    93 symmetry adapted basis functions of A   symmetry.
    93 basis functions,   142 primitive gaussians,    99 cartesian basis functions
    11 alpha electrons       11 beta electrons
       nuclear repulsion energy        64.1724172649 Hartrees.
 NAtoms=    5 NActive=    5 NUniq=    5 SFac= 1.00D+00 NAtFMM=   60 NAOKFM=F Big=F
 Integral buffers will be    262144 words long.
 Raffenetti 2 integral format.
 Two-electron integral symmetry is turned on.
 R6APFD:  NTU= -4 IXU= 1 FactS= 1.050
 Nuclear repulsion after empirical dispersion term =       64.1720904034 Hartrees.
 One-electron integrals computed using PRISM.
 NBasis=    93 RedAO= T EigKep=  9.55D-05  NBF=    93
 NBsUse=    93 1.00D-06 EigRej= -1.00D+00 NBFU=    93
 ExpMin= 4.38D-02 ExpMax= 6.29D+03 ExpMxC= 9.49D+02 IAcc=3 IRadAn=         5 AccDes= 0.00D+00
 Harris functional with IExCor= 3731 and IRadAn=       5 diagonalized for initial guess.
 HarFok:  IExCor= 3731 AccDes= 0.00D+00 IRadAn=         5 IDoV= 1 UseB2=F ITyADJ=14
 ICtDFT=  3500011 ScaDFX=  1.000000  1.000000  1.000000  1.000000
 FoFCou: FMM=F IPFlag=           0 FMFlag=      100000 FMFlg1=           0
         NFxFlg=           0 DoJE=T BraDBF=F KetDBF=T FulRan=T
         wScrn=  0.000000 ICntrl=     500 IOpCl=  0 I1Cent=   200000004 NGrid=           0
         NMat0=    1 NMatS0=      1 NMatT0=    0 NMatD0=    1 NMtDS0=    0 NMtDT0=    0
 Petite list used in FoFCou.
 Keep R1 ints in memory in canonical form, NReq=10520328.
 Requested convergence on RMS density matrix=1.00D-08 within 128 cycles.
 Requested convergence on MAX density matrix=1.00D-06.
 Requested convergence on             energy=1.00D-06.
 No special actions if energy rises.
 SCF Done:  E(RAPFD) =  -148.541233818     A.U. after   12 cycles
            NFock= 12  Conv=0.52D-08     -V/T= 1.9973

 **********************************************************************

            Population analysis using the SCF density.

 **********************************************************************

 Orbital symmetries:
       Occupied  (A) (A) (A) (A) (A) (A) (A) (A) (A) (A) (A)
       Virtual   (A) (A) (A) (A) (A) (A) (A) (A) (A) (A) (A) (A)
                 (A) (A) (A) (A) (A) (A) (A) (A) (A) (A) (A) (A)
                 (A) (A) (A) (A) (A) (A) (A) (A) (A) (A) (A) (A)
                 (A) (A) (A) (A) (A) (A) (A) (A) (A) (A) (A) (A)
                 (A) (A) (A) (A) (A) (A) (A) (A) (A) (A) (A) (A)
                 (A) (A) (A) (A) (A) (A) (A) (A) (A) (A) (A) (A)
                 (A) (A) (A) (A) (A) (A) (A) (A) (A) (A)
 The electronic state is 1-A.
 Alpha  occ. eigenvalues --  -14.48878 -14.41732 -10.20054  -1.10808  -0.92278
 Alpha  occ. eigenvalues --   -0.61567  -0.59400  -0.48999  -0.45452  -0.37940
 Alpha  occ. eigenvalues --   -0.25448
 Alpha virt. eigenvalues --   -0.06100  -0.00229   0.01255   0.05298   0.05334
 Alpha virt. eigenvalues --    0.08019   0.11429   0.14748   0.15154   0.18913
 Alpha virt. eigenvalues --    0.19617   0.20521   0.21837   0.22141   0.22738
 Alpha virt. eigenvalues --    0.27912   0.31361   0.38018   0.41982   0.49308
 Alpha virt. eigenvalues --    0.63281   0.65975   0.70028   0.73639   0.75572
 Alpha virt. eigenvalues --    0.77185   0.78151   0.79429   0.84210   0.85538
 Alpha virt. eigenvalues --    0.85717   0.86277   0.86706   0.95536   1.01033
 Alpha virt. eigenvalues --    1.04904   1.12976   1.28831   1.29693   1.31749
 Alpha virt. eigenvalues --    1.37272   1.39937   1.41764   1.73232   1.80341
 Alpha virt. eigenvalues --    1.82373   1.94216   1.97510   2.15727   2.29221
 Alpha virt. eigenvalues --    2.35769   2.37939   2.54080   2.62038   2.85958
 Alpha virt. eigenvalues --    2.96600   3.23976   3.39130   3.41440   3.48160
 Alpha virt. eigenvalues --    3.58583   3.93726   3.96519   3.99493   4.08964
 Alpha virt. eigenvalues --    4.27878   4.39261   4.67375   4.67473   4.71928
 Alpha virt. eigenvalues --    4.79202   4.81210   4.82235   4.92214   4.96124
 Alpha virt. eigenvalues --    5.12970   5.15465   5.51608   5.94092  24.62320
 Alpha virt. eigenvalues --   35.53372  35.91790
     Molecular Orbital Coefficients:
                           1         2         3         4         5
                           O         O         O         O         O
     Eigenvalues --   -14.48878 -14.41732 -10.20054  -1.10808  -0.92278
   1 1   H  1S         -0.00017   0.00003  -0.00011   0.02611  -0.04933
   2        2S         -0.00157   0.00035  -0.00763   0.02658  -0.05010
   3        3S          0.00080  -0.00015   0.00320  -0.00393   0.00379
   4        4PX         0.00022   0.00030  -0.00083   0.00349  -0.00640
   5        4PY         0.00037  -0.00020   0.00248  -0.00440   0.00897
   6        4PZ         0.00018  -0.00007   0.00110  -0.00135   0.00243
   7 2   H  1S         -0.00027   0.00000  -0.00035   0.02728  -0.05364
   8        2S         -0.00212   0.00034  -0.00988   0.02736  -0.05310
   9        3S          0.00088  -0.00033   0.00385  -0.00351   0.00398
  10        4PX         0.00012   0.00022  -0.00127   0.00384  -0.00722
  11        4PY        -0.00045   0.00018  -0.00265   0.00415  -0.00873
  12        4PZ         0.00023  -0.00010   0.00140  -0.00159   0.00319
  13 3   N  1S          0.55746  -0.00236  -0.00034  -0.10729   0.00935
  14        2S          0.46558  -0.00191  -0.00005  -0.16974   0.01482
  15        2PX         0.00007   0.00039  -0.00099  -0.00292   0.19037
  16        2PY         0.00001   0.00000   0.00002   0.00140   0.00069
  17        2PZ        -0.00012   0.00001   0.00002   0.00346   0.00373
  18        3S          0.01547   0.00177   0.00186   0.46499  -0.04093
  19        3PX        -0.00199  -0.00057   0.00513   0.00697   0.26099
  20        3PY         0.00005   0.00001  -0.00007   0.00197   0.00106
  21        3PZ         0.00013   0.00000  -0.00003   0.00476   0.00482
  22        4S          0.01211  -0.01228  -0.03223   0.22130  -0.00713
  23        4PX         0.00475   0.01055   0.02152  -0.00462   0.02333
  24        4PY         0.00007   0.00016   0.00012   0.00042  -0.00014
  25        4PZ         0.00048   0.00063   0.00089   0.00125  -0.00152
  26        5S          0.00900  -0.00132   0.01108  -0.13735   0.04157
  27        5PX         0.00397   0.00178   0.00950  -0.03531  -0.00453
  28        5PY         0.00009   0.00000   0.00018  -0.00081  -0.00001
  29        5PZ         0.00011   0.00006  -0.00006  -0.00172  -0.00029
  30        6D 0       -0.00045  -0.00015  -0.00007  -0.00843   0.00064
  31        6D+1        0.00006   0.00002   0.00003   0.00099   0.00099
  32        6D-1       -0.00001   0.00000  -0.00001   0.00000   0.00001
  33        6D+2        0.00067   0.00023   0.00008   0.01408  -0.00085
  34        6D-2        0.00000   0.00000   0.00001   0.00010   0.00034
  35        7D 0       -0.00223   0.00278   0.00441  -0.00811  -0.00601
  36        7D+1        0.00027  -0.00056  -0.00024   0.00103   0.00251
  37        7D-1        0.00003   0.00000   0.00009  -0.00010  -0.00001
  38        7D+2        0.00419  -0.00480  -0.00698   0.00918   0.00998
  39        7D-2        0.00003  -0.00011   0.00006   0.00014   0.00020
  40 4   N  1S          0.00231   0.55767   0.00001  -0.05562  -0.07396
  41        2S          0.00211   0.46588  -0.00025  -0.08756  -0.11706
  42        2PX        -0.00065  -0.00169   0.00000  -0.06556  -0.06841
  43        2PY        -0.00001  -0.00002   0.00001  -0.00074  -0.00112
  44        2PZ        -0.00005  -0.00011   0.00002  -0.00361  -0.00486
  45        3S         -0.00064   0.01543   0.00346   0.23876   0.32677
  46        3PX         0.00311  -0.00237  -0.00195  -0.09572  -0.09832
  47        3PY         0.00006  -0.00004  -0.00009  -0.00106  -0.00156
  48        3PZ         0.00024  -0.00015  -0.00022  -0.00532  -0.00720
  49        4S         -0.01184  -0.01136  -0.00769   0.13424   0.24249
  50        4PX         0.00607   0.00324   0.00356  -0.03525  -0.05469
  51        4PY         0.00011   0.00003   0.00004  -0.00031  -0.00080
  52        4PZ         0.00033   0.00018   0.00005  -0.00167  -0.00381
  53        5S         -0.00708   0.00373  -0.01583   0.08009  -0.03979
  54        5PX         0.00092  -0.00185   0.00322  -0.01587   0.01949
  55        5PY        -0.00001   0.00000  -0.00001  -0.00027   0.00023
  56        5PZ         0.00017  -0.00009   0.00068  -0.00168   0.00165
  57        6D 0        0.00004  -0.00035  -0.00010  -0.00542  -0.00536
  58        6D+1       -0.00001   0.00007   0.00002   0.00105   0.00124
  59        6D-1        0.00000   0.00000   0.00000  -0.00002  -0.00002
  60        6D+2       -0.00007   0.00055   0.00018   0.00858   0.00824
  61        6D-2        0.00000   0.00001   0.00001   0.00021   0.00027
  62        7D 0        0.00114   0.00007   0.00014  -0.00860  -0.00708
  63        7D+1       -0.00027   0.00001   0.00015   0.00148   0.00200
  64        7D-1       -0.00001   0.00000  -0.00001  -0.00005  -0.00006
  65        7D+2       -0.00207  -0.00005  -0.00032   0.01275   0.00952
  66        7D-2       -0.00008   0.00001   0.00006   0.00026   0.00029
  67 5   C  1S         -0.00004   0.00005   0.56260  -0.05447   0.07771
  68        2S          0.00048  -0.00024   0.46227  -0.08301   0.12050
  69        2PX         0.00036   0.00007   0.00097   0.06650  -0.07115
  70        2PY         0.00000   0.00003  -0.00013  -0.00062   0.00200
  71        2PZ        -0.00006   0.00003   0.00037   0.00908  -0.01838
  72        3S         -0.00360   0.00537   0.03435   0.19251  -0.30396
  73        3PX        -0.00638   0.00392   0.00872   0.08326  -0.09365
  74        3PY        -0.00012  -0.00015  -0.00066   0.00045   0.00072
  75        3PZ         0.00043  -0.00028   0.00383   0.01035  -0.01966
  76        4S         -0.00112   0.01239   0.02944   0.05202  -0.14955
  77        4PX        -0.00190   0.00418   0.01062   0.01553  -0.02638
  78        4PY        -0.00014  -0.00020  -0.00053   0.00050   0.00027
  79        4PZ         0.00011  -0.00001   0.00137   0.00085  -0.00470
  80        5S         -0.00174  -0.00151  -0.00069   0.03426  -0.00068
  81        5PX        -0.00089  -0.00157  -0.00097   0.01630   0.00687
  82        5PY        -0.00001  -0.00002   0.00007   0.00030  -0.00004
  83        5PZ        -0.00020  -0.00001  -0.00065   0.00158  -0.00086
  84        6D 0        0.00054  -0.00008  -0.00172  -0.00781   0.00961
  85        6D+1       -0.00009   0.00002  -0.00034   0.00093  -0.00070
  86        6D-1       -0.00002   0.00000  -0.00018  -0.00021   0.00041
  87        6D+2       -0.00108   0.00032   0.00067   0.00933  -0.00992
  88        6D-2        0.00005  -0.00001   0.00017   0.00009  -0.00012
  89        7D 0        0.00076  -0.00018  -0.00247  -0.00507   0.00297
  90        7D+1       -0.00058  -0.00025  -0.00054   0.00320  -0.00115
  91        7D-1       -0.00012  -0.00004  -0.00039   0.00037  -0.00022
  92        7D+2       -0.00246   0.00039  -0.00006   0.01083  -0.00390
  93        7D-2        0.00010  -0.00016   0.00020  -0.00004   0.00038
                           6         7         8         9        10
                           O         O         O         O         O
     Eigenvalues --    -0.61567  -0.59400  -0.48999  -0.45452  -0.37940
   1 1   H  1S          0.07969   0.15498  -0.02194  -0.02306  -0.11085
   2        2S          0.10171   0.19287  -0.02315  -0.03745  -0.17433
   3        3S          0.00686   0.02573  -0.02384  -0.00827  -0.07474
   4        4PX        -0.00404   0.00692   0.00382   0.00327  -0.00632
   5        4PY        -0.01494  -0.01579   0.00176   0.00292   0.01167
   6        4PZ        -0.00036  -0.00998   0.00784   0.00195   0.00728
   7 2   H  1S          0.17077  -0.07804  -0.02364  -0.02555   0.10368
   8        2S          0.20704  -0.09114  -0.02247  -0.04086   0.15537
   9        3S          0.01969  -0.01628  -0.02586  -0.00703   0.06926
  10        4PX         0.00263  -0.00753   0.00310   0.00297   0.00901
  11        4PY         0.02235  -0.00223  -0.00118  -0.00350   0.00821
  12        4PZ        -0.00885   0.00867   0.00789   0.00246  -0.00731
  13 3   N  1S          0.04248   0.01428  -0.01555   0.02683  -0.00090
  14        2S          0.06903   0.02322  -0.02544   0.04408  -0.00148
  15        2PX         0.07781   0.02218  -0.01124  -0.13670  -0.00450
  16        2PY        -0.03858   0.14628   0.00188  -0.00338   0.16818
  17        2PZ         0.05711   0.01678   0.21605   0.02802  -0.00376
  18        3S         -0.20637  -0.06973   0.07784  -0.13599   0.00542
  19        3PX         0.10503   0.02966  -0.01250  -0.19902  -0.00577
  20        3PY        -0.05880   0.22384   0.00313  -0.00533   0.26216
  21        3PZ         0.08812   0.02609   0.33529   0.04364  -0.00583
  22        4S         -0.17427  -0.06357   0.07793  -0.19395  -0.00781
  23        4PX         0.01942   0.00182  -0.00912  -0.12849   0.00100
  24        4PY        -0.03110   0.12402   0.00263  -0.00430   0.19970
  25        4PZ         0.04454   0.01375   0.21068   0.02770  -0.00407
  26        5S          0.09998   0.03602  -0.10156   0.13501   0.00034
  27        5PX         0.04008   0.01528  -0.10318   0.04740   0.00140
  28        5PY         0.00364  -0.01208  -0.00082   0.00116   0.04256
  29        5PZ        -0.00525  -0.00160  -0.00721   0.00569  -0.00066
  30        6D 0        0.00154   0.00038  -0.00045  -0.00012  -0.00011
  31        6D+1       -0.00354  -0.00089  -0.00271   0.00025  -0.00025
  32        6D-1       -0.00001   0.00025   0.00019   0.00002   0.00000
  33        6D+2       -0.00307  -0.00119   0.00106   0.00039   0.00007
  34        6D-2        0.00249  -0.00761  -0.00004  -0.00014   0.01128
  35        7D 0       -0.00174  -0.00072   0.00324   0.00296   0.00096
  36        7D+1       -0.00711  -0.00221  -0.00051   0.00255  -0.00155
  37        7D-1       -0.00067   0.00205   0.00042   0.00019   0.00019
  38        7D+2        0.00224  -0.00023  -0.00501  -0.00134  -0.00194
  39        7D-2        0.00382  -0.01081  -0.00076  -0.00006   0.04711
  40 4   N  1S         -0.02959  -0.00953   0.01917  -0.07587  -0.00008
  41        2S         -0.04752  -0.01533   0.03090  -0.12278  -0.00015
  42        2PX         0.00590   0.00287  -0.03961   0.19239  -0.00185
  43        2PY        -0.01198   0.04893   0.00047   0.00151   0.17724
  44        2PZ         0.01635   0.00533   0.11055   0.03468  -0.00387
  45        3S          0.13836   0.04472  -0.08845   0.35486   0.00073
  46        3PX         0.00639   0.00288  -0.05816   0.27298  -0.00337
  47        3PY        -0.01942   0.07831   0.00085   0.00197   0.26885
  48        3PZ         0.02624   0.00845   0.17076   0.05169  -0.00583
  49        4S          0.14830   0.05293  -0.11063   0.50735   0.00064
  50        4PX        -0.00561  -0.00301  -0.03197   0.13578  -0.00249
  51        4PY        -0.01160   0.04613   0.00034   0.00090   0.20917
  52        4PZ         0.01489   0.00471   0.11379   0.03328  -0.00467
  53        5S         -0.10311  -0.03822   0.17320  -0.07407  -0.00189
  54        5PX         0.03070   0.01142  -0.04369   0.04834   0.00029
  55        5PY        -0.00040   0.00459  -0.00073   0.00038   0.01196
  56        5PZ         0.00372   0.00139   0.00498   0.00501  -0.00017
  57        6D 0       -0.00046  -0.00008  -0.00212   0.00615   0.00004
  58        6D+1       -0.00188  -0.00059  -0.01002  -0.00329   0.00027
  59        6D-1        0.00003  -0.00033  -0.00013  -0.00009  -0.00078
  60        6D+2        0.00003   0.00004   0.00279  -0.01242   0.00032
  61        6D-2        0.00146  -0.00571  -0.00002  -0.00023  -0.01180
  62        7D 0       -0.00073  -0.00024  -0.00400   0.00492  -0.00010
  63        7D+1       -0.00671  -0.00198  -0.02891  -0.00624   0.00066
  64        7D-1        0.00022  -0.00119  -0.00035  -0.00022  -0.00140
  65        7D+2       -0.00093   0.00029   0.00495  -0.01375   0.00086
  66        7D-2        0.00497  -0.01820  -0.00015  -0.00006  -0.02958
  67 5   C  1S         -0.05187  -0.01498   0.02739  -0.00214   0.00070
  68        2S         -0.08181  -0.02378   0.04377  -0.00370   0.00118
  69        2PX        -0.15950  -0.04419   0.04814   0.07793   0.00293
  70        2PY        -0.05960   0.18323   0.00186  -0.00096  -0.11895
  71        2PZ         0.07884   0.01848   0.10058   0.00318   0.00448
  72        3S          0.19287   0.05812  -0.11054   0.01779  -0.00339
  73        3PX        -0.19407  -0.05665   0.06822   0.09868   0.00776
  74        3PY        -0.07255   0.24476   0.00210  -0.00295  -0.12661
  75        3PZ         0.09968   0.02499   0.15849   0.01055   0.00401
  76        4S          0.17504   0.06038  -0.14940  -0.03367  -0.00203
  77        4PX        -0.07637  -0.02350   0.03325   0.03615   0.00873
  78        4PY        -0.02937   0.10629   0.00114  -0.00109  -0.08818
  79        4PZ         0.04458   0.01262   0.09229   0.00631   0.00264
  80        5S          0.01426   0.00622  -0.04032  -0.01029  -0.00212
  81        5PX        -0.00294  -0.00091  -0.00442  -0.00449   0.00016
  82        5PY        -0.00268   0.01044   0.00027  -0.00024  -0.01228
  83        5PZ         0.00674   0.00230   0.01263  -0.00160  -0.00031
  84        6D 0        0.00347   0.00054   0.00190  -0.00295   0.00019
  85        6D+1       -0.00031   0.00040   0.01975   0.00439  -0.00051
  86        6D-1       -0.00448   0.01055  -0.00004   0.00008  -0.00802
  87        6D+2       -0.01931  -0.00637   0.00413   0.00823   0.00176
  88        6D-2       -0.00081   0.00879  -0.00016  -0.00062   0.01570
  89        7D 0        0.00635   0.00062   0.00718  -0.00060  -0.00096
  90        7D+1        0.00148  -0.00013   0.03112   0.00657  -0.00059
  91        7D-1       -0.00197   0.01008   0.00061  -0.00046   0.00107
  92        7D+2       -0.00603  -0.00243   0.00424  -0.00194   0.00159
  93        7D-2       -0.00738   0.02293  -0.00090   0.00011   0.02804
                          11        12        13        14        15
                           O         V         V         V         V
     Eigenvalues --    -0.25448  -0.06100  -0.00229   0.01255   0.05298
   1 1   H  1S         -0.01874   0.07018   0.03360   0.02003  -0.01081
   2        2S         -0.03343   0.16415   0.08467   0.04195   0.01145
   3        3S          0.01525   0.26596   0.05251  -0.21865  -0.03181
   4        4PX        -0.00690  -0.00330   0.00377   0.00110   0.00555
   5        4PY         0.00474  -0.00495  -0.00286  -0.01383   0.00652
   6        4PZ        -0.01493  -0.00112   0.01636  -0.00559   0.00100
   7 2   H  1S         -0.01933  -0.06779   0.03600   0.01754   0.04351
   8        2S         -0.03236  -0.15407   0.07755   0.05239  -0.06971
   9        3S          0.01813  -0.23717   0.03497  -0.23312   0.66102
  10        4PX        -0.00772   0.00136   0.00447   0.00270   0.00274
  11        4PY        -0.00531  -0.00507   0.00330   0.01402  -0.00658
  12        4PZ        -0.01523   0.00161   0.01659  -0.00597   0.00382
  13 3   N  1S          0.00406   0.00018  -0.00202  -0.00204   0.00747
  14        2S          0.00675   0.00032  -0.00337  -0.00378   0.01296
  15        2PX         0.01250   0.00258   0.00813  -0.00144   0.01832
  16        2PY        -0.00031  -0.20892  -0.00392  -0.00983   0.01730
  17        2PZ        -0.01162   0.00584  -0.20078  -0.02283  -0.00244
  18        3S         -0.02286  -0.00173   0.01430   0.01004  -0.06111
  19        3PX         0.01553   0.00351   0.01297  -0.01538   0.01312
  20        3PY        -0.00043  -0.32718  -0.00641  -0.01502   0.01865
  21        3PZ        -0.01695   0.00917  -0.31730  -0.03415  -0.00163
  22        4S         -0.01007  -0.00502  -0.06380   0.64352   0.07172
  23        4PX         0.00563   0.01305   0.06674  -0.53716  -0.08424
  24        4PY        -0.00039  -0.35072  -0.00535  -0.01922   0.10462
  25        4PZ        -0.00699   0.01045  -0.37337  -0.07928  -0.03237
  26        5S          0.14881  -0.01662  -0.65433  -1.58801  -1.02483
  27        5PX         0.13438   0.03455  -0.20698  -3.27435   0.23545
  28        5PY         0.00076  -0.29755  -0.01391  -0.04857  -0.42699
  29        5PZ         0.03182   0.00666  -0.57427  -0.15852   0.22940
  30        6D 0        0.00175   0.00016   0.00085  -0.00294   0.00176
  31        6D+1        0.01934  -0.00040   0.00199   0.00049  -0.00042
  32        6D-1        0.00009   0.00135   0.00006   0.00011  -0.00072
  33        6D+2       -0.00156  -0.00069  -0.00072   0.00548  -0.00358
  34        6D-2        0.00060   0.01209   0.00000   0.00026   0.00004
  35        7D 0        0.00461   0.00022   0.00559  -0.03337  -0.00241
  36        7D+1        0.07052  -0.00128   0.00755   0.00602   0.00180
  37        7D-1        0.00049   0.00558   0.00035  -0.00041  -0.00060
  38        7D+2        0.00199  -0.00240  -0.01618   0.05704   0.00180
  39        7D-2        0.00194   0.04001   0.00027   0.00057  -0.00206
  40 4   N  1S          0.00002   0.00063   0.00291  -0.01642   0.01228
  41        2S          0.00012   0.00105   0.00475  -0.02689   0.02091
  42        2PX        -0.02097  -0.00124  -0.00247  -0.01445  -0.00723
  43        2PY         0.00660   0.22050   0.00164   0.00692  -0.04521
  44        2PZ         0.22248  -0.00688   0.13297   0.02086   0.00980
  45        3S         -0.00177  -0.00364  -0.01543   0.08223  -0.08077
  46        3PX        -0.02909  -0.00162  -0.00615  -0.01582   0.00282
  47        3PY         0.00985   0.33271   0.00225   0.01103  -0.06820
  48        3PZ         0.32954  -0.01045   0.19883   0.03167   0.01654
  49        4S         -0.00288  -0.00813  -0.01823   0.32130  -0.02765
  50        4PX        -0.02613  -0.00148  -0.01571  -0.10163  -0.08872
  51        4PY         0.00943   0.39180   0.00266   0.01089  -0.10106
  52        4PZ         0.30910  -0.01196   0.26307   0.03796   0.01186
  53        5S         -0.23527  -0.04015   0.49618   5.33602  -0.39839
  54        5PX         0.04642   0.00488  -0.13391  -1.25099   0.17865
  55        5PY         0.00336   0.27988   0.00369  -0.00403   0.12276
  56        5PZ         0.06780  -0.00662   0.33787  -0.07334  -0.04764
  57        6D 0       -0.00086   0.00005   0.00075  -0.00053   0.00088
  58        6D+1       -0.00661  -0.00010   0.00637   0.00075  -0.00027
  59        6D-1       -0.00012   0.00024   0.00010   0.00000  -0.00001
  60        6D+2        0.00064  -0.00019  -0.00055   0.00050  -0.00123
  61        6D-2       -0.00018   0.00353   0.00011   0.00028  -0.00025
  62        7D 0       -0.00097  -0.00016   0.00173  -0.00091  -0.00113
  63        7D+1       -0.01151  -0.00036   0.01867   0.00187   0.00042
  64        7D-1       -0.00009   0.00158   0.00049   0.00027  -0.00084
  65        7D+2        0.00051  -0.00064   0.00064   0.00332   0.00039
  66        7D-2       -0.00048   0.01225   0.00071   0.00117   0.00195
  67 5   C  1S         -0.01925   0.00218   0.01701  -0.03051  -0.00129
  68        2S         -0.03155   0.00349   0.02839  -0.05072  -0.00209
  69        2PX        -0.03858  -0.00042   0.02316  -0.01180  -0.01830
  70        2PY        -0.00417   0.02081  -0.00018   0.00381  -0.04757
  71        2PZ        -0.17140  -0.00205   0.10027   0.02311   0.01031
  72        3S          0.08350  -0.00828  -0.07113   0.16174   0.00115
  73        3PX        -0.06270  -0.00044   0.05428  -0.10894  -0.06496
  74        3PY        -0.00681   0.01065  -0.00047   0.00949  -0.11993
  75        3PZ        -0.24983  -0.00137   0.15499   0.02419   0.03698
  76        4S          0.17440   0.01166  -0.16947  -1.17422  -0.12720
  77        4PX        -0.05562   0.00730   0.12880  -0.65407  -0.01396
  78        4PY        -0.00643  -0.04124  -0.00507   0.03208  -0.04415
  79        4PZ        -0.26945   0.00037   0.33699   0.07699  -0.02780
  80        5S          0.06359   0.06764   0.15170  -3.80423   0.86773
  81        5PX        -0.00664   0.01063   0.16677  -0.46273   1.29282
  82        5PY        -0.00178   0.15076   0.02445   0.03275   1.15968
  83        5PZ        -0.05539   0.00133   0.68880  -0.06867  -0.39962
  84        6D 0       -0.00138  -0.00017  -0.00074  -0.00176   0.00205
  85        6D+1       -0.00568   0.00087  -0.01808  -0.00276  -0.00194
  86        6D-1        0.00018   0.00585  -0.00019  -0.00015  -0.00622
  87        6D+2       -0.00093  -0.00147  -0.00194  -0.00039  -0.00899
  88        6D-2       -0.00013  -0.02407  -0.00014  -0.00078   0.00364
  89        7D 0       -0.01054   0.00009   0.00666   0.03666   0.00728
  90        7D+1       -0.00029   0.00077  -0.04468  -0.00484   0.00019
  91        7D-1       -0.00121  -0.00435  -0.00022   0.00370  -0.02175
  92        7D+2       -0.00610  -0.00035   0.00803  -0.05104  -0.03768
  93        7D-2       -0.00004  -0.04424   0.00008  -0.00390   0.00959
                          16        17        18        19        20
                           V         V         V         V         V
     Eigenvalues --     0.05334   0.08019   0.11429   0.14748   0.15154
   1 1   H  1S          0.04351  -0.03346  -0.00496  -0.00247  -0.00272
   2        2S         -0.06442   0.03656  -0.08507  -0.00710   0.00238
   3        3S          0.55842  -0.78651   0.09387  -0.42085  -0.15449
   4        4PX         0.00381   0.00038  -0.01041   0.00315   0.00170
   5        4PY         0.00400   0.00029   0.00085  -0.00577  -0.00334
   6        4PZ         0.00278  -0.00771   0.00083  -0.00472  -0.00114
   7 2   H  1S         -0.01042  -0.03273  -0.00343   0.00146  -0.00227
   8        2S          0.00171   0.03627  -0.09435   0.00779  -0.00207
   9        3S         -0.05257  -0.82828   0.23483   0.48863  -0.18872
  10        4PX         0.00504   0.00059  -0.01218  -0.00188   0.00125
  11        4PY        -0.00557   0.00018  -0.00293  -0.00569   0.00357
  12        4PZ         0.00238  -0.00977   0.00283   0.00556  -0.00187
  13 3   N  1S          0.00816   0.00456  -0.01865   0.00007   0.00102
  14        2S          0.01414   0.00828  -0.03133   0.00012   0.00169
  15        2PX         0.02023   0.00247   0.01967   0.00033   0.00130
  16        2PY        -0.01572   0.00385  -0.00240  -0.03408  -0.00043
  17        2PZ        -0.00317   0.09276   0.00414   0.00070  -0.02428
  18        3S         -0.06551  -0.05345   0.13072  -0.00017  -0.00293
  19        3PX         0.01514  -0.00787   0.02212   0.00126   0.00632
  20        3PY        -0.01607   0.00542  -0.00421  -0.03898  -0.00049
  21        3PZ        -0.00344   0.12914   0.00215   0.00070  -0.02298
  22        4S          0.12580   0.44124  -0.28247  -0.02315  -0.06987
  23        4PX        -0.11617  -0.34359  -0.64241   0.02041   0.04303
  24        4PY        -0.11114   0.01667  -0.01815  -0.17545   0.00117
  25        4PZ        -0.03390   0.32357   0.00306   0.00759  -0.11117
  26        5S         -1.21033  -4.79225  13.60012   0.08181   0.10146
  27        5PX        -0.01781  -3.89334   4.84643   0.13434   0.03801
  28        5PY         0.44699  -0.03699   0.05329   0.41008   0.00922
  29        5PZ         0.17115  -0.68892   0.13068   0.00450   0.28167
  30        6D 0        0.00176   0.00131  -0.00029   0.00006  -0.00075
  31        6D+1       -0.00050   0.00263   0.00025   0.00023  -0.00890
  32        6D-1        0.00067  -0.00009  -0.00010  -0.00095  -0.00010
  33        6D+2       -0.00400  -0.00103   0.00003   0.00019   0.00059
  34        6D-2       -0.00021   0.00012  -0.00024  -0.01001  -0.00009
  35        7D 0       -0.00337  -0.01100   0.04166   0.00023   0.00379
  36        7D+1        0.00211   0.00686  -0.01111  -0.00058   0.01889
  37        7D-1        0.00069   0.00002  -0.00026  -0.00197   0.00025
  38        7D+2        0.00362   0.02557  -0.06725   0.00003  -0.00207
  39        7D-2        0.00280   0.00027  -0.00185   0.02168   0.00000
  40 4   N  1S          0.01199   0.00199   0.02766  -0.00020  -0.00027
  41        2S          0.02043   0.00378   0.04561  -0.00032  -0.00061
  42        2PX        -0.00775  -0.00083  -0.01949   0.00160   0.00566
  43        2PY         0.04394  -0.00391   0.00172  -0.10361  -0.00180
  44        2PZ         0.00713  -0.09598  -0.00516   0.00139  -0.10924
  45        3S         -0.07874  -0.02137  -0.16333   0.00128   0.00610
  46        3PX         0.00275   0.01538  -0.04370   0.00166   0.00453
  47        3PY         0.06622  -0.00526   0.00231  -0.11032  -0.00169
  48        3PZ         0.01235  -0.13935  -0.00663   0.00166  -0.11334
  49        4S         -0.02093   0.10197   0.37232  -0.00701  -0.03832
  50        4PX        -0.09410  -0.09785  -0.56376   0.01371   0.04002
  51        4PY         0.09882  -0.01330  -0.00226  -0.42905  -0.00828
  52        4PZ         0.00703  -0.24684  -0.05519   0.00528  -0.45864
  53        5S          0.03178   6.99443 -12.37672  -0.22354  -0.01896
  54        5PX         0.07696  -1.63059   4.76490   0.02220  -0.11453
  55        5PY        -0.13358  -0.03541   0.07589   1.21127   0.02069
  56        5PZ        -0.04008   0.01751   0.39919  -0.01526   1.33184
  57        6D 0        0.00094   0.00035  -0.00050  -0.00001   0.00056
  58        6D+1       -0.00018  -0.00379   0.00003  -0.00013   0.00473
  59        6D-1        0.00002  -0.00006   0.00004   0.00024   0.00006
  60        6D+2       -0.00131  -0.00077   0.00167  -0.00012  -0.00043
  61        6D-2        0.00017  -0.00026   0.00023   0.00532   0.00004
  62        7D 0       -0.00107   0.00124  -0.04236   0.00044   0.00445
  63        7D+1        0.00051  -0.00226   0.01074  -0.00042   0.03071
  64        7D-1        0.00069  -0.00011   0.00002   0.00080   0.00044
  65        7D+2        0.00001  -0.00010   0.07485  -0.00138  -0.00306
  66        7D-2       -0.00254   0.00045   0.00231   0.03132   0.00060
  67 5   C  1S         -0.00185  -0.01340  -0.00451  -0.00005  -0.00233
  68        2S         -0.00273  -0.02084  -0.00804  -0.00008  -0.00380
  69        2PX        -0.01957  -0.02400  -0.02927   0.00046  -0.00393
  70        2PY         0.04497  -0.00381   0.00550   0.02990   0.00006
  71        2PZ         0.00723  -0.12964  -0.00145  -0.00130   0.01530
  72        3S         -0.00567   0.03496   0.03566   0.00126   0.00534
  73        3PX        -0.06752  -0.08253  -0.03220   0.00183   0.00667
  74        3PY         0.11180  -0.00539   0.00322   0.05056   0.00008
  75        3PZ         0.02679  -0.22795   0.02338  -0.00101   0.03800
  76        4S         -0.15905  -0.61206  -0.11785   0.02501   0.22316
  77        4PX        -0.08415  -0.47275  -0.51651   0.03679   0.00915
  78        4PY         0.05938  -0.01905   0.04355   0.29309  -0.00978
  79        4PZ        -0.00765  -0.34809  -0.04518  -0.02005   0.09606
  80        5S          0.71453  -0.92683  -0.59594   0.06939   0.08357
  81        5PX         1.26475   0.35275  -0.85972   0.02354  -0.06404
  82        5PY        -1.18524   0.07451   0.01035  -0.66528  -0.01599
  83        5PZ        -0.29118   1.45251   0.03455   0.00356  -0.79447
  84        6D 0        0.00183   0.00245  -0.00587   0.00017   0.00107
  85        6D+1       -0.00147   0.00640  -0.00033  -0.00014   0.00245
  86        6D-1        0.00522   0.00050  -0.00069  -0.00151   0.00008
  87        6D+2       -0.00932   0.00102   0.00675   0.00013   0.00071
  88        6D-2       -0.00253  -0.00002   0.00017   0.00288  -0.00004
  89        7D 0        0.00678   0.02247  -0.00781  -0.00160   0.00212
  90        7D+1        0.00146   0.00756  -0.01319  -0.00109   0.04389
  91        7D-1        0.02033  -0.00185  -0.00148   0.00606  -0.00109
  92        7D+2       -0.05204  -0.02787  -0.00673   0.00338   0.00209
  93        7D-2       -0.00210   0.00075   0.00275   0.05552   0.00017
                          21        22        23        24        25
                           V         V         V         V         V
     Eigenvalues --     0.18913   0.19617   0.20521   0.21837   0.22141
   1 1   H  1S          0.03567  -0.03081  -0.01320   0.01297  -0.01156
   2        2S          0.37602  -0.01164   0.26241  -0.08630   0.08920
   3        3S          3.77204  -2.44091   0.81803   2.59885  -0.26544
   4        4PX         0.01802  -0.00435   0.00749  -0.00514   0.00090
   5        4PY         0.01766  -0.00576  -0.01424   0.01389  -0.00439
   6        4PZ         0.00169  -0.00506   0.01797   0.01131   0.01578
   7 2   H  1S          0.02381  -0.02593  -0.01232   0.00517  -0.01786
   8        2S          0.13714   0.23559  -0.46577  -0.08573   0.03418
   9        3S          1.65011  -0.79933  -4.01181  -0.55879  -3.66387
  10        4PX         0.00819   0.00348  -0.01795  -0.00155   0.00623
  11        4PY        -0.01962   0.01248  -0.00020   0.00008   0.01951
  12        4PZ        -0.01522   0.00514  -0.01341  -0.01435  -0.01328
  13 3   N  1S          0.00180  -0.00178  -0.00027   0.00087   0.00023
  14        2S          0.00277  -0.00334  -0.00058   0.00126   0.00064
  15        2PX         0.02164   0.01879  -0.00501  -0.01599   0.01497
  16        2PY         0.00950  -0.00263  -0.01837   0.08243   0.06264
  17        2PZ         0.01316  -0.02273  -0.00301   0.04389  -0.06971
  18        3S         -0.01691  -0.01234  -0.00096  -0.01491   0.00846
  19        3PX         0.02881   0.02255  -0.00687  -0.01184   0.01174
  20        3PY         0.01534  -0.00312  -0.01945   0.09416   0.07244
  21        3PZ         0.01616  -0.02537  -0.00218   0.04682  -0.07495
  22        4S          0.05015   0.76985   0.22518   0.10640  -0.02069
  23        4PX        -0.57036  -1.14151  -0.06973   0.10668  -0.13633
  24        4PY         0.13198  -0.08146   0.09103   0.53604   0.42815
  25        4PZ         0.11753  -0.21900  -0.06711   0.28630  -0.45612
  26        5S         10.68089  -3.73777  -5.05397   0.49736  -3.07068
  27        5PX         3.60504  -9.39546  -3.78995   2.93932  -5.03727
  28        5PY         0.56194  -0.41687   2.34538  -2.86429  -1.88200
  29        5PZ         0.75196   0.19426  -0.62039  -1.80380   2.53572
  30        6D 0        0.00127   0.01411   0.00342   0.00126  -0.00061
  31        6D+1        0.00351  -0.00365  -0.00278  -0.00147   0.00122
  32        6D-1        0.00069  -0.00038   0.00115   0.00156   0.00158
  33        6D+2       -0.00719  -0.01991  -0.00322  -0.00495   0.00472
  34        6D-2        0.00384  -0.00268   0.00743   0.00020   0.00147
  35        7D 0       -0.02763   0.01483   0.00974  -0.02321   0.02729
  36        7D+1        0.00146   0.00043  -0.00265  -0.00632   0.00718
  37        7D-1        0.01579  -0.01483   0.04351   0.01944   0.02054
  38        7D+2       -0.02865  -0.00975   0.00924   0.01933  -0.02040
  39        7D-2       -0.00564   0.00061  -0.00095  -0.01063  -0.00666
  40 4   N  1S          0.00305   0.03225   0.01007   0.00944  -0.00646
  41        2S          0.00585   0.05308   0.01596   0.01483  -0.01028
  42        2PX         0.03020   0.06493   0.00362   0.00252  -0.00589
  43        2PY        -0.02011   0.01216  -0.02742  -0.03883  -0.03506
  44        2PZ        -0.02117   0.01683   0.01194  -0.01068   0.02167
  45        3S         -0.03814  -0.16204  -0.03374  -0.02298   0.01651
  46        3PX         0.01960   0.10342   0.02131   0.02440  -0.02420
  47        3PY        -0.02493   0.01544  -0.03641  -0.03626  -0.03513
  48        3PZ        -0.02647   0.01867   0.01497  -0.00458   0.01413
  49        4S          0.42983  -0.18894  -0.36802  -0.59071   0.46759
  50        4PX        -0.08350  -0.23079  -0.01505   0.12924  -0.15461
  51        4PY        -0.09184   0.04709  -0.11585  -0.23849  -0.21188
  52        4PZ        -0.10999   0.05794   0.05438  -0.08400   0.15818
  53        5S         -9.47396  16.45976   8.38297  -1.85431   6.16606
  54        5PX         2.80738  -3.85821  -2.28129  -0.36624  -0.71442
  55        5PY        -0.05374  -0.01376  -0.92587   1.82353   1.24457
  56        5PZ         0.08797  -0.69530  -0.05862   1.06719  -1.67981
  57        6D 0       -0.00036   0.00507   0.00191   0.00196  -0.00143
  58        6D+1       -0.00209  -0.00007   0.00064  -0.00128   0.00207
  59        6D-1        0.00005  -0.00011   0.00037   0.00005   0.00005
  60        6D+2       -0.00039  -0.00768  -0.00248  -0.00322   0.00266
  61        6D-2       -0.00189   0.00070  -0.00297  -0.00258  -0.00244
  62        7D 0       -0.01936  -0.00562   0.00737   0.00920  -0.00818
  63        7D+1        0.00693  -0.00242  -0.00353   0.00709  -0.01437
  64        7D-1        0.00301  -0.00219   0.00600   0.00776   0.00715
  65        7D+2        0.01646   0.02035  -0.00503  -0.02659   0.02494
  66        7D-2        0.00189  -0.00083   0.00141   0.01773   0.01626
  67 5   C  1S          0.03542   0.02966  -0.00609  -0.00045  -0.00531
  68        2S          0.05844   0.05177  -0.00961  -0.00086  -0.00820
  69        2PX         0.04498  -0.04290  -0.03254  -0.01380  -0.00058
  70        2PY        -0.06042   0.03841  -0.10890  -0.02586  -0.03667
  71        2PZ        -0.06514   0.02299   0.03602   0.01036  -0.00149
  72        3S         -0.10745  -0.16972   0.00556  -0.01341   0.01916
  73        3PX        -0.00081  -0.16205  -0.05484  -0.04938   0.04295
  74        3PY        -0.08793   0.06693  -0.19183  -0.00296  -0.01928
  75        3PZ        -0.08388  -0.02641   0.03781   0.02843  -0.02313
  76        4S         -3.35003  -3.37580   0.65066   0.33053   0.12843
  77        4PX         0.22033  -1.32503  -0.58271   0.04809  -0.36875
  78        4PY        -0.83823   0.64565  -1.82746  -0.68195  -0.78414
  79        4PZ        -0.85882   0.35765   0.54432  -0.07239   0.31897
  80        5S         -3.01690  -7.19245  -0.99261  -0.01041  -0.44368
  81        5PX        -0.62105  -2.14346  -0.59385  -0.38968   0.07619
  82        5PY        -0.72531   0.55583  -1.92358   0.43205   0.06619
  83        5PZ        -0.70692  -0.07145   0.46682   0.59752  -0.72480
  84        6D 0       -0.00531   0.00911   0.00305  -0.00423   0.00443
  85        6D+1       -0.00091  -0.00063   0.00111   0.00350  -0.00431
  86        6D-1        0.00375  -0.00229   0.00709   0.00766   0.00829
  87        6D+2       -0.01549   0.00463   0.00546  -0.00265   0.00529
  88        6D-2       -0.00145   0.00084  -0.00576   0.00351   0.00050
  89        7D 0        0.00048   0.09543   0.03068  -0.03517   0.05296
  90        7D+1        0.01709   0.02425  -0.01720  -0.02894   0.03318
  91        7D-1       -0.02756   0.03441  -0.09594   0.01009   0.00702
  92        7D+2        0.00618  -0.05019  -0.01751  -0.00988  -0.00066
  93        7D-2        0.00556  -0.01423   0.06500  -0.03966  -0.02778
                          26        27        28        29        30
                           V         V         V         V         V
     Eigenvalues --     0.22738   0.27912   0.31361   0.38018   0.41982
   1 1   H  1S         -0.01426  -0.03009   0.02219  -0.04883  -0.03643
   2        2S          0.08431  -0.23333   0.26683  -0.47796  -1.79005
   3        3S         -1.61494   0.44623  -0.93245   0.70796   0.27560
   4        4PX         0.00097  -0.03238   0.01304  -0.02558  -0.07325
   5        4PY        -0.00547   0.02478  -0.00851   0.03008   0.13892
   6        4PZ         0.00151   0.01249  -0.00510   0.01614   0.00846
   7 2   H  1S         -0.01546  -0.03070   0.01128  -0.04507   0.04514
   8        2S          0.08040  -0.24758   0.27783  -0.45251   2.02166
   9        3S         -2.23283   0.09957  -0.83082   0.59411  -0.04927
  10        4PX         0.00389  -0.03449   0.02012  -0.03064   0.09004
  11        4PY         0.00966  -0.02541   0.00697  -0.02720   0.15437
  12        4PZ        -0.00325   0.01381  -0.00467   0.01790  -0.02827
  13 3   N  1S         -0.00204  -0.04306   0.05535   0.02837  -0.00039
  14        2S         -0.00324  -0.07072   0.09328   0.04823  -0.00056
  15        2PX         0.03558  -0.01683  -0.06039  -0.13203  -0.00024
  16        2PY         0.01084   0.00191  -0.00060  -0.00095  -0.01078
  17        2PZ         0.04271  -0.00820  -0.00551  -0.01007   0.00252
  18        3S          0.01916   0.09738  -0.25233  -0.16016   0.00799
  19        3PX         0.01751  -0.09706  -0.08731  -0.27516   0.00986
  20        3PY         0.01304   0.00461  -0.00112  -0.00016   0.01376
  21        3PZ         0.04727  -0.00089  -0.01264  -0.01075  -0.00072
  22        4S          0.28294   3.92757  -2.50827   1.93131  -0.24392
  23        4PX        -0.60861  -0.89433  -0.88762  -3.43596  -0.01417
  24        4PY         0.06464   0.00897  -0.01936  -0.02531  -0.73631
  25        4PZ         0.09954  -0.11653  -0.10601  -0.21001   0.01939
  26        5S         -1.55407 -28.69929 -24.33704  33.85359  -1.96793
  27        5PX        -7.67782 -12.40778 -13.15676  10.61672  -0.90883
  28        5PY        -0.27433  -0.15513  -0.15430   0.17523  -1.17549
  29        5PZ        -2.60358  -0.65441  -0.76757   0.57005   0.02551
  30        6D 0        0.00111   0.00380  -0.01646  -0.00807  -0.00003
  31        6D+1       -0.00552  -0.00128   0.00167   0.00186  -0.00008
  32        6D-1        0.00042   0.00017   0.00023   0.00003  -0.00003
  33        6D+2        0.00212  -0.00664   0.03059   0.01593  -0.00011
  34        6D-2        0.00030   0.00002   0.00066   0.00036  -0.00311
  35        7D 0        0.04141  -0.11165  -0.00090  -0.02716   0.01486
  36        7D+1       -0.00074   0.01185   0.01126   0.00005   0.00094
  37        7D-1        0.00442   0.00303  -0.00104   0.00024  -0.13665
  38        7D+2       -0.03790   0.21956   0.00246   0.09415  -0.00862
  39        7D-2       -0.00071   0.00143   0.00193  -0.00122   0.07564
  40 4   N  1S         -0.00769   0.01338  -0.02356  -0.03453   0.00098
  41        2S         -0.01101   0.02464  -0.04146  -0.05554   0.00168
  42        2PX         0.02617   0.02325  -0.21122  -0.08594  -0.00027
  43        2PY        -0.00589  -0.00200  -0.00224  -0.00280  -0.00961
  44        2PZ         0.00375   0.00102  -0.00726  -0.00844  -0.00008
  45        3S         -0.01359  -0.09964   0.13770   0.09872  -0.00825
  46        3PX         0.00287   0.17935  -0.32687  -0.16635  -0.00578
  47        3PY        -0.00629  -0.00009  -0.00369  -0.00454  -0.05286
  48        3PZ         0.00833   0.01012  -0.01387  -0.01683   0.00138
  49        4S          1.05309  -0.55728   1.01611   2.64290   0.07259
  50        4PX        -0.24461   0.11410  -1.50999  -1.23167  -0.06715
  51        4PY        -0.04196  -0.00592  -0.01903  -0.02173   0.21142
  52        4PZ        -0.04489   0.02866  -0.07142  -0.06858  -0.01471
  53        5S          7.84644  30.07135  30.73586 -31.57636   2.22742
  54        5PX        -0.53269  -8.02416  -7.45794   8.94580  -0.56154
  55        5PY         0.13677  -0.09597  -0.12560   0.14312   0.71953
  56        5PZ         1.02607  -0.48620  -0.52029   0.67138  -0.07337
  57        6D 0       -0.00274  -0.00038   0.00603   0.00893   0.00012
  58        6D+1        0.00109   0.00118  -0.00095  -0.00121  -0.00030
  59        6D-1        0.00000   0.00005  -0.00006  -0.00004  -0.00097
  60        6D+2        0.00469   0.00128  -0.01098  -0.01603  -0.00025
  61        6D-2       -0.00045  -0.00005  -0.00032  -0.00040   0.00672
  62        7D 0       -0.01856   0.02233  -0.02325  -0.01015  -0.00485
  63        7D+1        0.01541  -0.01133   0.00805  -0.00003   0.00178
  64        7D-1        0.00198   0.00073   0.00023   0.00019  -0.00631
  65        7D+2        0.05117  -0.03799   0.04770   0.01386   0.00579
  66        7D-2        0.00450  -0.00266   0.00158  -0.00004  -0.01841
  67 5   C  1S          0.01509   0.02633  -0.01761  -0.00821  -0.00056
  68        2S          0.02500   0.04862  -0.03173  -0.01518   0.00061
  69        2PX         0.01759   0.02348   0.16376   0.09053  -0.00272
  70        2PY        -0.00520  -0.00219  -0.00261  -0.00211  -0.09712
  71        2PZ         0.05947   0.00931   0.01353  -0.00796   0.00676
  72        3S         -0.03695  -0.22666   0.13673   0.07603  -0.06217
  73        3PX         0.01589  -0.34967   0.30743  -0.17467   0.05950
  74        3PY        -0.00130  -0.00297  -0.00058  -0.00770   0.28128
  75        3PZ         0.00597   0.02977  -0.02845   0.02688  -0.03103
  76        4S         -1.85696  -3.73828  -1.00499  -5.28425  -0.25963
  77        4PX        -0.64431  -1.66048   0.92305  -4.10895   0.31108
  78        4PY        -0.11112  -0.04973   0.04357   0.05033   3.39782
  79        4PZ         0.69142   0.18580   0.14465   0.15643  -0.19939
  80        5S         -2.55378  -1.00532  -3.27698  -1.51516  -0.21006
  81        5PX        -0.05424   1.71104  -0.47704  -0.40604  -0.02264
  82        5PY         0.03222  -0.06231   0.07940  -0.09541  -0.50573
  83        5PZ         1.23084  -0.10136   0.23029  -0.27867   0.00737
  84        6D 0        0.01062  -0.00293   0.00464  -0.01441   0.00132
  85        6D+1        0.00574  -0.00049   0.00170  -0.00081   0.00147
  86        6D-1        0.00188   0.00010   0.00064  -0.00104  -0.00767
  87        6D+2        0.00159   0.00804  -0.00687   0.02629   0.00252
  88        6D-2       -0.00071   0.00008  -0.00144  -0.00079  -0.01498
  89        7D 0        0.08516   0.08696   0.02758   0.20720  -0.02577
  90        7D+1        0.01264  -0.03301   0.04925  -0.06574   0.04535
  91        7D-1        0.00489   0.00242   0.01240  -0.00056   0.21975
  92        7D+2       -0.05130  -0.14219   0.02079  -0.31142  -0.00745
  93        7D-2       -0.00307   0.00806  -0.00609   0.00427  -0.25285
                          31        32        33        34        35
                           V         V         V         V         V
     Eigenvalues --     0.49308   0.63281   0.65975   0.70028   0.73639
   1 1   H  1S         -0.01665  -0.11270   0.02231   0.01756   0.02862
   2        2S         -1.13449  -0.01731   0.41963   0.39539   0.53281
   3        3S          1.22676   4.19451  -1.56854  -1.27143   0.71320
   4        4PX        -0.04088   0.06501   0.01996  -0.03209  -0.04450
   5        4PY         0.03654  -0.09582   0.00429  -0.02821  -0.05683
   6        4PZ         0.01820  -0.03558  -0.01364  -0.02304  -0.00195
   7 2   H  1S         -0.01674   0.03010   0.09661   0.02851  -0.04643
   8        2S         -1.15256  -0.32263   0.07239   0.52225  -1.77644
   9        3S          1.17220  -0.93688  -4.80199  -1.46940  -0.82680
  10        4PX        -0.04087  -0.04414  -0.04614  -0.03021  -0.00383
  11        4PY        -0.04374  -0.02780  -0.06490   0.03531  -0.12865
  12        4PZ         0.02524   0.01901   0.02326  -0.02495   0.05671
  13 3   N  1S          0.00987   0.00474  -0.00612  -0.01569   0.00457
  14        2S          0.01408   0.00894  -0.01261  -0.02306   0.00802
  15        2PX         0.03119  -0.01067   0.01368  -0.13334   0.01512
  16        2PY         0.00333  -0.04570  -0.02232  -0.00391   0.10854
  17        2PZ         0.02921  -0.01257   0.02193   0.01093  -0.01717
  18        3S          0.08238  -0.04492   0.06476   0.16904  -0.00909
  19        3PX         0.04241  -0.02418   0.03223  -0.30640   0.00184
  20        3PY         0.00394  -0.10436  -0.05557  -0.01539   0.36579
  21        3PZ         0.07241  -0.02915   0.06104   0.02794  -0.05549
  22        4S         -3.39192  -1.46972   3.14170  -6.97851  -0.85934
  23        4PX         2.28945   0.40455  -0.37846  -1.65778   0.13683
  24        4PY        -0.05633   0.20335   0.12265  -0.04550   0.27404
  25        4PZ        -0.29720   0.11535  -0.17786  -0.22218  -0.02226
  26        5S         -6.14943  -1.08547   0.29417 -17.51330  -0.49612
  27        5PX         2.51258   2.02413  -5.19555 -10.44522   1.22188
  28        5PY        -0.06200   0.56229   0.38284  -0.12760   1.20568
  29        5PZ        -0.94706   0.29239  -0.71367  -0.71353  -0.12642
  30        6D 0        0.00179   0.00405  -0.00848   0.00225  -0.00155
  31        6D+1        0.00365  -0.00315   0.00765   0.00437  -0.00454
  32        6D-1        0.00019  -0.00752  -0.00580   0.00018  -0.01055
  33        6D+2        0.00345   0.00120   0.00086  -0.00822  -0.00260
  34        6D-2       -0.00020  -0.01380  -0.00802  -0.00071   0.02988
  35        7D 0        0.15087   0.04748  -0.14898   0.32305   0.02663
  36        7D+1        0.08083  -0.05432   0.10901  -0.01888  -0.00501
  37        7D-1        0.00486  -0.01626  -0.03049   0.00156  -0.24624
  38        7D+2       -0.08711  -0.02941   0.09957  -0.66182  -0.08077
  39        7D-2        0.01284  -0.14925  -0.07425  -0.01361  -0.06815
  40 4   N  1S          0.00053  -0.00173   0.00452  -0.00503  -0.00378
  41        2S         -0.00084  -0.00254   0.00689  -0.00543  -0.00709
  42        2PX        -0.00129  -0.00074  -0.03050   0.11469   0.02478
  43        2PY        -0.00188   0.01922   0.00753   0.00175  -0.03198
  44        2PZ        -0.02930   0.00625  -0.01227   0.00123   0.00760
  45        3S          0.02891  -0.01238   0.02706  -0.20851   0.02710
  46        3PX        -0.03436   0.00047  -0.05574   0.11724   0.05196
  47        3PY        -0.00758   0.03885   0.01121   0.00008   0.00932
  48        3PZ        -0.09001   0.01848  -0.03073  -0.00184   0.00653
  49        4S         -0.76991   0.19080  -0.87250   4.63878   0.25991
  50        4PX         0.24125  -0.27223   0.89590  -3.96163  -0.36146
  51        4PY         0.02278   0.04066   0.04292  -0.04773  -0.19400
  52        4PZ         0.13719  -0.02687   0.05863  -0.25443   0.00456
  53        5S          0.48987  -1.67332   5.97421  21.15041  -1.33751
  54        5PX        -0.71314   0.26651  -1.22879  -4.08002   0.29644
  55        5PY         0.03973  -0.16774  -0.16276  -0.06933  -0.34710
  56        5PZ         0.66522  -0.06563   0.08989  -0.21661   0.07443
  57        6D 0       -0.00113   0.00227  -0.00600   0.01789   0.00165
  58        6D+1        0.00275   0.00011  -0.00051  -0.00531   0.00107
  59        6D-1        0.00008   0.00045   0.00013  -0.00010  -0.00179
  60        6D+2        0.00337  -0.00370   0.00915  -0.03266  -0.00256
  61        6D-2        0.00053   0.00407   0.00274  -0.00068  -0.00837
  62        7D 0       -0.00818  -0.00983   0.02568  -0.16769  -0.02897
  63        7D+1       -0.02243   0.01300  -0.03502   0.00441   0.03788
  64        7D-1        0.00214   0.00449  -0.00688   0.00317  -0.15990
  65        7D+2        0.03469   0.01236  -0.07020   0.26362   0.02965
  66        7D-2       -0.00207   0.06000   0.03717   0.00984  -0.19228
  67 5   C  1S         -0.01082  -0.01574   0.01655   0.01757   0.01032
  68        2S         -0.02692  -0.02990   0.03263   0.02612   0.01644
  69        2PX        -0.02687  -0.04621   0.08831  -0.15103   0.00660
  70        2PY        -0.00493   0.21985   0.10815   0.00668   0.02473
  71        2PZ        -0.17164   0.07025  -0.13581  -0.04943   0.01002
  72        3S          0.12974   0.18913  -0.18454   0.16949  -0.10879
  73        3PX         0.13166  -0.06684   0.08199   0.13552   0.00294
  74        3PY        -0.03640   0.52107   0.24147   0.03243  -0.28680
  75        3PZ        -0.43022   0.26516  -0.51899  -0.27046   0.15532
  76        4S          6.81106   0.86289  -1.60625   0.75927   2.51089
  77        4PX         2.63144   1.31109  -2.55298   2.22946   0.07578
  78        4PY         0.08135  -2.59120  -1.50664   0.02754  -2.33773
  79        4PZ         1.83879  -0.73411   1.62092   0.65047   0.34578
  80        5S          2.11467   0.48937  -1.59968  -1.05523   0.96619
  81        5PX         0.41516   0.16106  -0.53649   0.04061   0.22832
  82        5PY        -0.05566  -0.80264  -0.45588   0.02388  -0.50390
  83        5PZ        -0.48742  -0.15855   0.39489   0.20182   0.06686
  84        6D 0        0.01048   0.01433  -0.02105  -0.02215   0.00167
  85        6D+1       -0.01198   0.00501  -0.01132  -0.00738   0.00113
  86        6D-1       -0.00091  -0.01165  -0.00775   0.00004  -0.00953
  87        6D+2       -0.00351   0.00585  -0.00562   0.02984  -0.00678
  88        6D-2       -0.00056   0.02375   0.01366  -0.00067  -0.00670
  89        7D 0        0.05580   0.17437  -0.24426  -0.44144  -0.11060
  90        7D+1       -0.04480  -0.00319  -0.07760   0.00806   0.02254
  91        7D-1        0.01174  -0.56070  -0.41100   0.01474  -0.75866
  92        7D+2        0.08742   0.34124  -0.53730   0.55020  -0.18819
  93        7D-2        0.02335   0.24854   0.19422  -0.00047  -0.52341
                          36        37        38        39        40
                           V         V         V         V         V
     Eigenvalues --     0.75572   0.77185   0.78151   0.79429   0.84210
   1 1   H  1S         -0.00427   0.00844  -0.02831   0.05532  -0.00613
   2        2S          1.65207  -0.50264  -0.77673   1.34377  -0.90623
   3        3S          0.12451   0.14870  -0.11575   0.02138   0.27493
   4        4PX         0.02366   0.05089   0.01721   0.00440  -0.02563
   5        4PY        -0.14983   0.01406   0.00284  -0.02009   0.04298
   6        4PZ        -0.08570   0.01071   0.01040  -0.02546   0.03588
   7 2   H  1S         -0.01978  -0.02957  -0.02056   0.04913  -0.00265
   8        2S          1.48548   0.08141  -0.63000   1.02389  -0.67127
   9        3S          0.14689  -0.05818   0.14661  -0.29149   0.44282
  10        4PX         0.05787  -0.05090   0.03127   0.00499  -0.01534
  11        4PY         0.12633   0.01865   0.01059  -0.01081  -0.02535
  12        4PZ        -0.10039  -0.00658   0.01241  -0.02618   0.04005
  13 3   N  1S         -0.01725   0.00247   0.00909  -0.01566   0.01688
  14        2S         -0.03118   0.00435   0.01623  -0.02764   0.03009
  15        2PX        -0.09726  -0.00446  -0.03483   0.04860  -0.06936
  16        2PY         0.02660  -0.10308   0.00763  -0.00610   0.02158
  17        2PZ         0.03371  -0.01025  -0.11327  -0.01752   0.08552
  18        3S          0.05868  -0.03533  -0.14150   0.17962  -0.15415
  19        3PX        -0.09811  -0.01398  -0.08585   0.12446  -0.13645
  20        3PY         0.10538  -0.34521   0.02740  -0.02613   0.08062
  21        3PZ         0.13008  -0.03417  -0.39533  -0.09199   0.35630
  22        4S          2.07024   0.18977   0.51540  -0.20595  -0.54923
  23        4PX         0.07235   0.11881   0.85292  -1.64010   3.32381
  24        4PY         0.16252   1.36020  -0.21230   0.21433  -0.20912
  25        4PZ        -0.02450  -0.03723   0.77874   0.77524   0.22716
  26        5S         -1.22746  -1.29880  -5.88962   7.02746  -0.88889
  27        5PX        -5.45619  -0.56566  -2.69159   2.11614   3.72084
  28        5PY         0.18551  -0.81698   0.01293   0.00889   0.22606
  29        5PZ         0.02527  -0.11975  -1.07366   0.08998   1.04581
  30        6D 0        0.00328  -0.00154  -0.00463   0.00914  -0.00097
  31        6D+1        0.00775  -0.00327   0.00289   0.02529   0.03435
  32        6D-1       -0.00053   0.00208   0.00059  -0.00144   0.00146
  33        6D+2        0.00897  -0.00174  -0.00630   0.00727  -0.00591
  34        6D-2        0.01088   0.02556  -0.00434   0.00406   0.00132
  35        7D 0       -0.09687  -0.07381  -0.28411   0.34445  -0.21843
  36        7D+1        0.02476   0.00746  -0.20117  -0.22147  -0.13043
  37        7D-1       -0.05056   0.00247   0.01727  -0.03777   0.02772
  38        7D+2        0.26877   0.01969   0.07977  -0.00748  -0.07975
  39        7D-2       -0.02643  -0.35608   0.05451  -0.05043  -0.00756
  40 4   N  1S          0.01509   0.00012   0.00187  -0.00123   0.00122
  41        2S          0.02889   0.00065   0.00556  -0.00444   0.00182
  42        2PX        -0.11861  -0.01046  -0.05105   0.08369  -0.06859
  43        2PY        -0.00855  -0.21472   0.02670  -0.02779  -0.01278
  44        2PZ        -0.01162  -0.00272  -0.16764  -0.14645  -0.05919
  45        3S         -0.13754  -0.00686  -0.05057   0.03981   0.02831
  46        3PX        -0.27055  -0.00152  -0.01979   0.09100  -0.09077
  47        3PY         0.01367  -0.66412   0.08054  -0.08598  -0.03707
  48        3PZ        -0.00116  -0.01902  -0.57048  -0.43902  -0.07354
  49        4S         -0.98303  -0.17669  -0.86853   1.30224  -2.31654
  50        4PX         1.37987   0.12678   0.61346  -0.98185   1.52787
  51        4PY        -0.08125   1.13477  -0.11887   0.12564   0.14816
  52        4PZ         0.02057   0.07124   1.15792   0.64665   0.18252
  53        5S          7.63950   1.33343   6.12502  -5.82692  -4.70978
  54        5PX        -1.80940  -0.34660  -1.57267   1.66785   0.67368
  55        5PY        -0.08912  -0.44245   0.04097  -0.05608  -0.10057
  56        5PZ        -0.17198  -0.01364  -0.41266  -0.36171  -0.30949
  57        6D 0       -0.00508  -0.00019   0.00077   0.00172  -0.00363
  58        6D+1       -0.00144   0.00151   0.01392   0.00318  -0.00488
  59        6D-1       -0.00058   0.00075   0.00026  -0.00014   0.00032
  60        6D+2        0.00895  -0.00057  -0.00225   0.00164   0.00190
  61        6D-2       -0.00318   0.01002  -0.00088   0.00094   0.00130
  62        7D 0        0.12118  -0.01718  -0.05453   0.11054  -0.13235
  63        7D+1       -0.07481   0.02062   0.04200  -0.11163  -0.27911
  64        7D-1       -0.03513   0.01043   0.01337  -0.02928   0.01293
  65        7D+2       -0.09499  -0.03817  -0.16677   0.24325  -0.25263
  66        7D-2       -0.06995  -0.08653   0.00797  -0.00082  -0.03085
  67 5   C  1S         -0.05423  -0.00645  -0.02219   0.02500   0.02645
  68        2S         -0.09830  -0.01196  -0.04233   0.05025   0.04757
  69        2PX        -0.09512  -0.01399  -0.05016   0.06075   0.00236
  70        2PY         0.00142   0.03071  -0.00686   0.00589   0.00609
  71        2PZ        -0.01812   0.00436   0.02785  -0.00375   0.06666
  72        3S          0.78572   0.03342   0.18568  -0.21920  -0.33414
  73        3PX        -0.31096  -0.09974  -0.35664   0.36290   0.11789
  74        3PY        -0.00922  -0.04514   0.02107  -0.03966   0.05454
  75        3PZ        -0.38113   0.01676  -0.04972  -0.19813   0.29877
  76        4S         -7.07037   0.19433   1.08807  -3.05908   6.55665
  77        4PX         0.27062   0.09424   0.61380  -0.98567   1.65478
  78        4PY        -0.38401  -0.47496   0.34346  -0.46114   0.17464
  79        4PZ        -0.51926   0.15853   0.22797  -1.12953  -0.56215
  80        5S         -3.48990  -0.07119  -0.25829  -0.36675   2.61434
  81        5PX        -0.83591   0.03544   0.13253  -0.34452   0.55973
  82        5PY        -0.03192   0.54109  -0.02760   0.02919  -0.07780
  83        5PZ        -0.15043   0.01521   0.51102   0.29321  -0.29827
  84        6D 0       -0.00103   0.00264   0.00628  -0.00803   0.00360
  85        6D+1       -0.00229   0.00152  -0.00517  -0.01482  -0.01169
  86        6D-1        0.00253   0.00033   0.00149  -0.00198   0.00137
  87        6D+2        0.02880  -0.00352  -0.00590   0.00693  -0.00066
  88        6D-2       -0.00662  -0.01521   0.00179  -0.00115  -0.00084
  89        7D 0        0.22214  -0.09392  -0.33611   0.43137  -0.21269
  90        7D+1       -0.02531   0.07271  -0.09122  -0.51529  -1.03742
  91        7D-1       -0.05248   0.05198   0.05789  -0.08114   0.07132
  92        7D+2        0.78923  -0.08031  -0.10610   0.26385   0.00891
  93        7D-2       -0.30077  -0.73052   0.10807  -0.08261  -0.06819
                          41        42        43        44        45
                           V         V         V         V         V
     Eigenvalues --     0.85538   0.85717   0.86277   0.86706   0.95536
   1 1   H  1S          0.00607   0.00717   0.00412  -0.00437   0.00313
   2        2S          0.64543   0.85835   0.29591  -0.17539   1.72969
   3        3S          0.54980  -0.57821  -0.46870  -0.11612  -0.37229
   4        4PX         0.04706  -0.04360  -0.02461  -0.03178   0.01345
   5        4PY        -0.02809  -0.05710  -0.02290   0.04083  -0.07628
   6        4PZ         0.01062  -0.00037  -0.00830   0.00200  -0.01903
   7 2   H  1S         -0.01597  -0.01531  -0.00434   0.00375   0.00288
   8        2S         -0.91087  -0.94984  -0.40040   0.35769   1.65744
   9        3S         -0.29772   0.93355  -0.56598  -0.24988  -0.37994
  10        4PX        -0.04731   0.04488  -0.03424  -0.03369   0.01924
  11        4PY        -0.04843  -0.06256  -0.01249   0.00234   0.07015
  12        4PZ         0.00717   0.01255  -0.00586  -0.00028  -0.02830
  13 3   N  1S          0.00768   0.00471  -0.00329   0.01707  -0.03864
  14        2S          0.01473   0.00912  -0.00678   0.03290  -0.07474
  15        2PX        -0.05887  -0.04930   0.00619  -0.19530  -0.02098
  16        2PY        -0.16401   0.10565  -0.01870   0.01197   0.00323
  17        2PZ        -0.04125  -0.04127   0.18933  -0.00993  -0.01439
  18        3S         -0.11160  -0.07595   0.08373  -0.17957   0.72751
  19        3PX        -0.09195  -0.08139  -0.00447  -0.28322   0.10688
  20        3PY        -0.60404   0.29579  -0.08809   0.05830   0.01151
  21        3PZ        -0.13090  -0.13623   0.65525  -0.03389  -0.08921
  22        4S          0.03538  -0.10786  -0.60610  -1.42131  -5.49714
  23        4PX         2.01188   1.52390  -0.30863   6.64548   1.27982
  24        4PY         1.87499  -1.72696   0.09559  -0.02236   0.05777
  25        4PZ         0.62847   0.50554  -2.45133  -0.03037   0.10819
  26        5S         -0.52182  -0.79005  -1.19756  -0.93428   8.12058
  27        5PX         1.79255   1.05441  -1.59779   5.22532   3.28101
  28        5PY        -1.53225   1.04354  -0.15387   0.12892   0.05928
  29        5PZ        -0.30986  -0.33397   1.76109   0.31500   0.12440
  30        6D 0        0.00252   0.00174  -0.00305   0.00394  -0.01116
  31        6D+1        0.00429   0.00037  -0.01795  -0.01515  -0.00768
  32        6D-1       -0.00950  -0.00699  -0.00372   0.00299  -0.00011
  33        6D+2       -0.00249  -0.00161   0.00254  -0.00301   0.02260
  34        6D-2        0.00186  -0.02461  -0.00502   0.00333   0.00219
  35        7D 0       -0.00569   0.01198   0.01872   0.25133   0.03648
  36        7D+1        0.01396   0.01913  -0.08561   0.00640   0.00434
  37        7D-1       -0.33100  -0.30271  -0.15827   0.14887   0.00061
  38        7D+2        0.02851   0.04733  -0.05464   0.01231  -0.69360
  39        7D-2        0.11818   0.04428   0.03491  -0.01974  -0.02155
  40 4   N  1S          0.00309   0.00306  -0.00040   0.01353   0.00852
  41        2S          0.00608   0.00628  -0.00108   0.02490   0.00961
  42        2PX        -0.05378  -0.04076   0.02367  -0.13986   0.03515
  43        2PY         0.07231  -0.08274   0.00488  -0.00572  -0.00454
  44        2PZ         0.01566   0.02003  -0.08272  -0.00713   0.00554
  45        3S         -0.01990  -0.03208  -0.00132  -0.09177  -0.00707
  46        3PX        -0.07189  -0.05081   0.02735  -0.24191  -0.23621
  47        3PY         0.25071  -0.37315  -0.00285  -0.00432  -0.01630
  48        3PZ         0.07554   0.07660  -0.34337  -0.05779  -0.03741
  49        4S         -1.48616  -1.05244   0.55380  -4.14253   0.90403
  50        4PX         1.05536   0.74507  -0.49508   2.86880  -0.52153
  51        4PY        -1.00576   1.27848  -0.01959   0.05868   0.00727
  52        4PZ        -0.24246  -0.22807   1.38310   0.39602   0.01286
  53        5S         -2.26998  -1.18616   2.48496  -7.29487  -7.79528
  54        5PX         0.27495   0.10429  -0.41349   1.10752   1.99909
  55        5PY         0.91903  -0.90442   0.03448  -0.00253   0.01149
  56        5PZ         0.27034   0.25175  -1.18838  -0.03767   0.08533
  57        6D 0       -0.00053   0.00008   0.00226   0.00140  -0.01080
  58        6D+1       -0.00459  -0.00342   0.02137   0.00562   0.00389
  59        6D-1       -0.00410  -0.00183  -0.00128   0.00161   0.00003
  60        6D+2        0.00105  -0.00026  -0.00152   0.00336   0.00758
  61        6D-2       -0.01325   0.01993   0.00076  -0.00041  -0.00025
  62        7D 0        0.06777   0.06965  -0.01061   0.36973  -0.55163
  63        7D+1       -0.03436  -0.00406   0.10007   0.05298   0.17012
  64        7D-1       -0.32007  -0.28972  -0.14721   0.15118   0.00547
  65        7D+2       -0.12158  -0.08397   0.05124  -0.22442  -0.08382
  66        7D-2        0.05757   0.20511   0.06178  -0.05022  -0.00783
  67 5   C  1S          0.01584   0.00750  -0.00405   0.06113   0.02639
  68        2S          0.02944   0.01338  -0.00961   0.11435   0.04513
  69        2PX        -0.01597  -0.01894   0.00338  -0.03582   0.02881
  70        2PY        -0.02331  -0.06457  -0.01636   0.01562  -0.00102
  71        2PZ         0.00846   0.00486  -0.00727  -0.00855  -0.04442
  72        3S         -0.15612  -0.03953   0.09796  -0.59528   0.08974
  73        3PX         0.06541   0.01849   0.05241   0.64128   1.11897
  74        3PY        -0.36655  -0.39889  -0.15124   0.12911  -0.01492
  75        3PZ         0.05435   0.02964   0.07035   0.03666  -0.28969
  76        4S          3.11533   2.06660  -0.04916  10.33530   1.98785
  77        4PX         0.89228   0.82674  -0.19275   3.17590   1.61689
  78        4PY        -1.25631   0.41446  -0.24925   0.07111  -0.19258
  79        4PZ        -0.13274  -0.11390   0.79968   0.20689  -0.46611
  80        5S          1.31997   0.90031  -0.40177   4.23945   0.00544
  81        5PX         0.25692   0.20528  -0.07625   0.73171  -0.66475
  82        5PY         0.50077  -0.04665   0.08579  -0.08646   0.01717
  83        5PZ         0.13857   0.10977  -0.61026   0.04313   0.14966
  84        6D 0        0.00069  -0.00005  -0.00457  -0.01176  -0.02168
  85        6D+1       -0.00047   0.00062   0.00542   0.01124   0.01028
  86        6D-1       -0.00902  -0.00370  -0.00336   0.00351   0.00175
  87        6D+2        0.00527   0.00575   0.00075   0.03152   0.06651
  88        6D-2        0.00471   0.00998   0.00314  -0.00353  -0.00443
  89        7D 0       -0.04847  -0.04952  -0.03768  -0.32809   0.49671
  90        7D+1       -0.15484  -0.03355   0.41294   0.37183   0.41499
  91        7D-1       -0.25100  -0.05333  -0.07229   0.00455  -0.02215
  92        7D+2        0.14327   0.16399  -0.08264   0.34173   1.01096
  93        7D-2        0.19705   0.91510   0.24349  -0.18432  -0.07861
                          46        47        48        49        50
                           V         V         V         V         V
     Eigenvalues --     1.01033   1.04904   1.12976   1.28831   1.29693
   1 1   H  1S          0.04312  -0.00072   0.01479   0.03261  -0.06403
   2        2S          0.89604  -3.19702   1.06470  -0.88262   1.78239
   3        3S         -0.14791   0.16575  -0.52951   0.05218  -0.16523
   4        4PX         0.05281  -0.04701   0.06760  -0.07153   0.22533
   5        4PY        -0.02316   0.17542   0.04800   0.11006  -0.00489
   6        4PZ        -0.00939   0.09857   0.02327  -0.03100  -0.02118
   7 2   H  1S          0.03714   0.00549   0.01249   0.01857  -0.00052
   8        2S          0.76577   3.52009   1.80621  -0.68203  -0.16516
   9        3S         -0.26185   0.01201  -0.66801   0.04967  -0.13620
  10        4PX         0.04706   0.05228   0.06169  -0.05032   0.00498
  11        4PY         0.00359   0.19697  -0.01010  -0.10760   0.01353
  12        4PZ        -0.00566  -0.11850   0.00573  -0.05359   0.21418
  13 3   N  1S          0.05215  -0.00369   0.04083  -0.01907  -0.00877
  14        2S          0.10556  -0.00805   0.08989  -0.03943  -0.01520
  15        2PX         0.06751   0.01404  -0.11395  -0.01193  -0.02020
  16        2PY         0.00234   0.01930   0.00317   0.00107  -0.00707
  17        2PZ         0.01138  -0.00628   0.00204  -0.00671   0.00359
  18        3S         -1.03677   0.14829  -1.38125   0.46378   0.06544
  19        3PX        -0.24429   0.01805  -0.06046   0.29238   0.26184
  20        3PY         0.01708   0.15407   0.03541  -0.00381  -0.00423
  21        3PZ         0.00919  -0.03722   0.00940  -0.00791   0.02173
  22        4S         10.87040  -1.18560  11.68785  -3.00496   0.08994
  23        4PX        -1.56678   0.31548  -1.70326  -7.02674  -6.58326
  24        4PY         0.08765  -0.55408  -0.06222  -0.07292  -0.18717
  25        4PZ        -0.04390   0.04757  -0.06128  -0.63410  -0.37198
  26        5S          1.81867   1.70403 -13.19515   9.51581   8.24736
  27        5PX        -1.72663   0.85424  -7.64300   2.49597   1.05734
  28        5PY         0.04627  -0.26896  -0.07955   0.02909   0.25892
  29        5PZ         0.02929   0.04361  -0.27519   0.14562   0.19634
  30        6D 0        0.01960  -0.00421   0.03273   0.00730   0.00106
  31        6D+1       -0.00325  -0.00184  -0.00399   0.00054   0.00354
  32        6D-1       -0.00024   0.01236   0.00173   0.00014   0.00381
  33        6D+2       -0.02709   0.00452  -0.04587   0.00339  -0.01226
  34        6D-2        0.00110   0.00448   0.00253  -0.00139   0.00806
  35        7D 0       -0.25858   0.10138  -0.59019   0.82352  -0.33038
  36        7D+1        0.05400   0.00295   0.13031  -0.00245  -0.00125
  37        7D-1        0.00262  -0.06049   0.03710  -0.00812   0.41685
  38        7D+2        0.35975  -0.14467   1.14321  -0.11850  -0.51449
  39        7D-2       -0.02206  -0.03959   0.01228  -0.00217  -0.00877
  40 4   N  1S          0.06289   0.01019  -0.08146   0.02529   0.01422
  41        2S          0.13015   0.01863  -0.15303   0.05148   0.03016
  42        2PX         0.00853   0.01334  -0.08803  -0.07372  -0.06755
  43        2PY        -0.00278   0.01125  -0.00608   0.00343  -0.02203
  44        2PZ        -0.00590   0.00396  -0.01254  -0.01112  -0.01062
  45        3S         -0.96866  -0.12712   1.17318  -0.52923  -0.32677
  46        3PX         0.27400  -0.05748   0.51018  -0.58209  -0.42247
  47        3PY         0.00163   0.05221   0.00100   0.00264  -0.05919
  48        3PZ        -0.00641  -0.00037   0.00880  -0.06310  -0.03919
  49        4S         -0.31093   0.43008  -4.92807   7.52023   5.77248
  50        4PX         1.09192  -0.15141   2.00225  -2.83256  -2.09051
  51        4PY         0.01399   0.00257   0.05589  -0.07195   0.12340
  52        4PZ         0.10912  -0.03237   0.17286  -0.11373  -0.09437
  53        5S         -1.18600  -2.09927  17.51315  -8.74811  -6.06468
  54        5PX         0.63067   0.55300  -4.55572   2.54310   1.87233
  55        5PY        -0.02268   0.24190  -0.05797   0.04871  -0.10800
  56        5PZ        -0.04618   0.03936  -0.40903   0.18144   0.04416
  57        6D 0        0.00686  -0.00074   0.00606  -0.00308   0.00314
  58        6D+1       -0.00158   0.00057  -0.00144  -0.00223  -0.00133
  59        6D-1        0.00008  -0.00622  -0.00103   0.00001  -0.00192
  60        6D+2       -0.01428   0.00273  -0.01873  -0.00090  -0.00057
  61        6D-2       -0.00075  -0.00004  -0.00143   0.00086  -0.00429
  62        7D 0        0.05452   0.01307   0.02250  -0.50556   0.37736
  63        7D+1       -0.01758   0.03074  -0.00982  -0.02573  -0.04361
  64        7D-1        0.00684  -0.59023  -0.09805   0.00521  -0.32792
  65        7D+2       -0.45651   0.06128  -0.52053  -0.19802   0.19613
  66        7D-2       -0.02732  -0.07212  -0.05986   0.02909  -0.13873
  67 5   C  1S         -0.02649   0.00025   0.03584   0.03519   0.03818
  68        2S         -0.03927  -0.00037   0.10562   0.06305   0.08310
  69        2PX         0.05121   0.02010  -0.09113  -0.11751  -0.11026
  70        2PY        -0.00249   0.09723   0.01493   0.00309  -0.01002
  71        2PZ        -0.04271  -0.00496  -0.05972   0.02621  -0.02680
  72        3S          0.29320   0.00864  -1.54069  -0.64758  -0.85653
  73        3PX        -0.65589   0.32918  -1.36774  -0.35481  -0.38718
  74        3PY        -0.01934   1.35630   0.18350   0.05329  -0.37245
  75        3PZ        -0.19695  -0.09224  -0.26512   0.22828  -0.12898
  76        4S         -9.84513   0.56115  -8.93393  -3.23496  -6.79275
  77        4PX        -4.40342   0.38195  -2.41316  -1.70570  -2.21628
  78        4PY        -0.16908   3.00519   0.26656   0.16791  -0.81504
[...]
  75        3PZ         0.00000   0.00000   0.00014   0.00000   0.00000
  76        4S          0.00000  -0.00008   0.00002   0.00000  -0.00020
  77        4PX         0.00000  -0.00003   0.00000   0.00000  -0.00009
  78        4PY        -0.00001   0.00000   0.00000   0.00000   0.00000
  79        4PZ         0.00000   0.00000  -0.00001   0.00000   0.00000
  80        5S          0.00000   0.00001   0.00000   0.00000   0.00002
  81        5PX         0.00000   0.00000   0.00000   0.00000  -0.00001
  82        5PY         0.00000   0.00000   0.00000   0.00000   0.00000
  83        5PZ         0.00000   0.00000  -0.00003   0.00000   0.00000
  84        6D 0        0.00000   0.00000   0.00000   0.00000   0.00000
  85        6D+1        0.00000   0.00000   0.00001   0.00000   0.00000
  86        6D-1        0.00000   0.00000   0.00000   0.00000   0.00000
  87        6D+2        0.00000   0.00000   0.00000   0.00000   0.00000
  88        6D-2        0.00000   0.00000   0.00000   0.00000   0.00000
  89        7D 0        0.00000   0.00000   0.00001   0.00000   0.00000
  90        7D+1        0.00000   0.00000   0.00027   0.00000   0.00000
  91        7D-1        0.00000   0.00000   0.00000   0.00000   0.00000
  92        7D+2        0.00000   0.00001   0.00000   0.00000   0.00005
  93        7D-2        0.00001   0.00000   0.00000   0.00000   0.00000
                          66        67        68        69        70
  66        7D-2        0.00246
  67 5   C  1S          0.00000   0.65914
  68        2S          0.00000   0.49259   0.49059
  69        2PX         0.00000   0.00000   0.00000   0.09353
  70        2PY         0.00000   0.00000   0.00000   0.00000   0.10260
  71        2PZ         0.00000   0.00000   0.00000   0.00000   0.00000
  72        3S          0.00000  -0.01997  -0.05146   0.00000   0.00000
  73        3PX         0.00000   0.00000   0.00000   0.07434   0.00000
  74        3PY         0.00006   0.00000   0.00000   0.00000   0.08087
  75        3PZ         0.00000   0.00000   0.00000   0.00000   0.00000
  76        4S          0.00000  -0.00469  -0.01363   0.00000   0.00000
  77        4PX         0.00000   0.00000   0.00000   0.01001   0.00000
  78        4PY        -0.00011   0.00000   0.00000   0.00000   0.01398
  79        4PZ         0.00000   0.00000   0.00000   0.00000   0.00000
  80        5S          0.00000  -0.00071  -0.00130   0.00000   0.00000
  81        5PX         0.00000   0.00000   0.00000   0.00009   0.00000
  82        5PY        -0.00002   0.00000   0.00000   0.00000   0.00041
  83        5PZ         0.00000   0.00000   0.00000   0.00000   0.00000
  84        6D 0        0.00000   0.00000   0.00000   0.00000   0.00000
  85        6D+1        0.00000   0.00000   0.00000   0.00000   0.00000
  86        6D-1        0.00000   0.00000   0.00000   0.00000   0.00000
  87        6D+2        0.00000   0.00000   0.00000   0.00000   0.00000
  88        6D-2        0.00001   0.00000   0.00000   0.00000   0.00000
  89        7D 0        0.00000   0.00000   0.00000   0.00000   0.00000
  90        7D+1        0.00000   0.00000   0.00000   0.00000   0.00000
  91        7D-1        0.00000   0.00000   0.00000   0.00000   0.00000
  92        7D+2        0.00000   0.00000   0.00000   0.00000   0.00000
  93        7D-2        0.00037   0.00000   0.00000   0.00000   0.00000
                          71        72        73        74        75
  71        2PZ         0.09300
  72        3S          0.00000   0.38154
  73        3PX         0.00000   0.00000   0.15018
  74        3PY         0.00000   0.00000   0.00000   0.16253
  75        3PZ         0.08504   0.00000   0.00000   0.00000   0.19746
  76        4S          0.00000   0.19260   0.00000   0.00000   0.00000
  77        4PX         0.00000   0.00000   0.03846   0.00000   0.00000
  78        4PY         0.00000   0.00000   0.00000   0.05144   0.00000
  79        4PZ         0.02614   0.00000   0.00000   0.00000   0.11355
  80        5S          0.00000   0.01598   0.00000   0.00000   0.00000
  81        5PX         0.00000   0.00000   0.00045   0.00000   0.00000
  82        5PY         0.00000   0.00000   0.00000   0.00195   0.00000
  83        5PZ         0.00130   0.00000   0.00000   0.00000   0.00751
  84        6D 0        0.00000   0.00000   0.00000   0.00000   0.00000
  85        6D+1        0.00000   0.00000   0.00000   0.00000   0.00000
  86        6D-1        0.00000   0.00000   0.00000   0.00000   0.00000
  87        6D+2        0.00000   0.00000   0.00000   0.00000   0.00000
  88        6D-2        0.00000   0.00000   0.00000   0.00000   0.00000
  89        7D 0        0.00000   0.00000   0.00000   0.00000   0.00000
  90        7D+1        0.00000   0.00000   0.00000   0.00000   0.00000
  91        7D-1        0.00000   0.00000   0.00000   0.00000   0.00000
  92        7D+2        0.00000   0.00000   0.00000   0.00000   0.00000
  93        7D-2        0.00000   0.00000   0.00000   0.00000   0.00000
                          76        77        78        79        80
  76        4S          0.22850
  77        4PX         0.00000   0.02608
  78        4PY         0.00000   0.00000   0.03996
  79        4PZ         0.00000   0.00000   0.00000   0.16668
  80        5S          0.03436   0.00000   0.00000   0.00000   0.01440
  81        5PX         0.00000   0.00048   0.00000   0.00000   0.00000
  82        5PY         0.00000   0.00000   0.00298   0.00000   0.00000
  83        5PZ         0.00000   0.00000   0.00000   0.02144   0.00000
  84        6D 0        0.00000   0.00000   0.00000   0.00000   0.00000
  85        6D+1        0.00000   0.00000   0.00000   0.00000   0.00000
  86        6D-1        0.00000   0.00000   0.00000   0.00000   0.00000
  87        6D+2        0.00000   0.00000   0.00000   0.00000   0.00000
  88        6D-2        0.00000   0.00000   0.00000   0.00000   0.00000
  89        7D 0        0.00000   0.00000   0.00000   0.00000   0.00000
  90        7D+1        0.00000   0.00000   0.00000   0.00000   0.00000
  91        7D-1        0.00000   0.00000   0.00000   0.00000   0.00000
  92        7D+2        0.00000   0.00000   0.00000   0.00000   0.00000
  93        7D-2        0.00000   0.00000   0.00000   0.00000   0.00000
                          81        82        83        84        85
  81        5PX         0.00082
  82        5PY         0.00000   0.00054
  83        5PZ         0.00000   0.00000   0.00657
  84        6D 0        0.00000   0.00000   0.00000   0.00037
  85        6D+1        0.00000   0.00000   0.00000   0.00000   0.00089
  86        6D-1        0.00000   0.00000   0.00000   0.00000   0.00000
  87        6D+2        0.00000   0.00000   0.00000   0.00000   0.00000
  88        6D-2        0.00000   0.00000   0.00000   0.00000   0.00000
  89        7D 0        0.00000   0.00000   0.00000   0.00011   0.00000
  90        7D+1        0.00000   0.00000   0.00000   0.00000   0.00059
  91        7D-1        0.00000   0.00000   0.00000   0.00000   0.00000
  92        7D+2        0.00000   0.00000   0.00000   0.00000   0.00000
  93        7D-2        0.00000   0.00000   0.00000   0.00000   0.00000
                          86        87        88        89        90
  86        6D-1        0.00039
  87        6D+2        0.00000   0.00138
  88        6D-2        0.00000   0.00000   0.00065
  89        7D 0        0.00000   0.00000   0.00000   0.00049
  90        7D+1        0.00000   0.00000   0.00000   0.00000   0.00205
  91        7D-1        0.00010   0.00000   0.00000   0.00000   0.00000
  92        7D+2        0.00000   0.00026   0.00000   0.00000   0.00000
  93        7D-2        0.00000   0.00000   0.00059   0.00000   0.00000
                          91        92        93
  91        7D-1        0.00022
  92        7D+2        0.00000   0.00048
  93        7D-2        0.00000   0.00000   0.00274
     Gross orbital populations:
                           1
   1 1   H  1S          0.31492
   2        2S          0.47656
   3        3S          0.04587
   4        4PX         0.00688
   5        4PY         0.01365
   6        4PZ         0.01181
   7 2   H  1S          0.33854
   8        2S          0.47208
   9        3S          0.03760
  10        4PX         0.00760
  11        4PY         0.01282
  12        4PZ         0.01324
  13 3   N  1S          1.09509
  14        2S          0.89586
  15        2PX         0.30683
  16        2PY         0.24270
  17        2PZ         0.24464
  18        3S          0.90753
  19        3PX         0.62401
  20        3PY         0.55823
  21        3PZ         0.57316
  22        4S          0.39963
  23        4PX        -0.01601
  24        4PY         0.34171
  25        4PZ         0.35190
  26        5S         -0.04258
  27        5PX        -0.03594
  28        5PY         0.00334
  29        5PZ        -0.00833
  30        6D 0        0.00104
  31        6D+1        0.00644
  32        6D-1        0.00000
  33        6D+2        0.00285
  34        6D-2        0.00341
  35        7D 0        0.00187
  36        7D+1        0.09165
  37        7D-1        0.00011
  38        7D+2        0.00256
  39        7D-2        0.05236
  40 4   N  1S          1.09588
  41        2S          0.89540
  42        2PX         0.23691
  43        2PY         0.16258
  44        2PZ         0.29092
  45        3S          0.97200
  46        3PX         0.52965
  47        3PY         0.37985
  48        3PZ         0.62460
  49        4S          0.96647
  50        4PX         0.20418
  51        4PY         0.29246
  52        4PZ         0.47922
  53        5S         -0.06552
  54        5PX         0.03771
  55        5PY         0.01012
  56        5PZ         0.03635
  57        6D 0        0.00131
  58        6D+1        0.00189
  59        6D-1        0.00001
  60        6D+2        0.00391
  61        6D-2        0.00222
  62        7D 0        0.00354
  63        7D+1        0.01900
  64        7D-1        0.00008
  65        7D+2        0.01047
  66        7D-2        0.02251
  67 5   C  1S          1.10305
  68        2S          0.88380
  69        2PX         0.25800
  70        2PY         0.27371
  71        2PZ         0.23820
  72        3S          0.75305
  73        3PX         0.47332
  74        3PY         0.52755
  75        3PZ         0.52146
  76        4S          0.49360
  77        4PX         0.12011
  78        4PY         0.20338
  79        4PZ         0.36395
  80        5S          0.07060
  81        5PX         0.01251
  82        5PY         0.00861
  83        5PZ         0.02638
  84        6D 0        0.00270
  85        6D+1        0.00628
  86        6D-1        0.00313
  87        6D+2        0.01104
  88        6D-2        0.00562
  89        7D 0        0.00200
  90        7D+1        0.02576
  91        7D-1        0.00266
  92        7D+2        0.00794
  93        7D-2        0.03226
          Condensed to atoms (all electrons):
               1          2          3          4          5
     1  H    0.535071  -0.040847  -0.048595  -0.015954   0.440004
     2  H   -0.040847   0.534012  -0.052014  -0.015311   0.456040
     3  N   -0.048595  -0.052014   5.580956   0.607609   0.516115
     4  N   -0.015954  -0.015311   0.607609   6.794427  -0.157051
     5  C    0.440004   0.456040   0.516115  -0.157051   5.175542
 Mulliken charges:
               1
     1  H    0.130322
     2  H    0.118119
     3  N    0.395930
     4  N   -0.213721
     5  C   -0.430650
 Sum of Mulliken charges =   0.00000
 Mulliken charges with hydrogens summed into heavy atoms:
               1
     3  N    0.395930
     4  N   -0.213721
     5  C   -0.182209
 Electronic spatial extent (au):  <R**2>=            125.4700
 Charge=              0.0000 electrons
 Dipole moment (field-independent basis, Debye):
    X=             -2.2180    Y=              0.0364    Z=              0.7401  Tot=              2.3385
 Quadrupole moment (field-independent basis, Debye-Ang):
   XX=            -19.7238   YY=            -15.6760   ZZ=            -18.2327
   XY=             -0.0305   XZ=             -1.3683   YZ=             -0.0418
 Traceless Quadrupole moment (field-independent basis, Debye-Ang):
   XX=             -1.8463   YY=              2.2015   ZZ=             -0.3552
   XY=             -0.0305   XZ=             -1.3683   YZ=             -0.0418
 Octapole moment (field-independent basis, Debye-Ang**2):
  XXX=             -5.4384  YYY=              0.1251  ZZZ=              1.2358  XYY=             -1.3545
  XXY=             -0.0697  XXZ=              2.3000  XZZ=             -0.3729  YZZ=             -0.0418
  YYZ=              0.8475  XYZ=             -0.0037
 Hexadecapole moment (field-independent basis, Debye-Ang**3):
 XXXX=           -135.3575 YYYY=            -18.4332 ZZZZ=            -19.7028 XXXY=              0.1972
 XXXZ=             -4.4651 YYYX=             -0.0972 YYYZ=             -0.0274 ZZZX=             -2.3339
 ZZZY=             -0.0892 XXYY=            -22.7784 XXZZ=            -27.1729 YYZZ=             -6.3993
 XXYZ=             -0.1483 YYXZ=             -1.3073 ZZXY=              0.0529
 N-N= 6.417209040339D+01 E-N=-4.754069852633D+02  KE= 1.489402701889D+02
 Orbital energies and kinetic energies (alpha):
                                 1                 2
   1         O               -14.488779         22.054281
   2         O               -14.417322         22.071809
   3         O               -10.200535         15.931040
   4         O                -1.108084          2.329119
   5         O                -0.922776          2.218611
   6         O                -0.615666          1.602909
   7         O                -0.594003          1.312419
   8         O                -0.489988          1.610468
   9         O                -0.454515          2.152342
  10         O                -0.379404          1.618654
  11         O                -0.254481          1.568483
  12         V                -0.061001          1.967054
  13         V                -0.002291          1.420714
  14         V                 0.012546          0.267306
  15         V                 0.052975          0.246094
  16         V                 0.053336          0.241448
  17         V                 0.080191          0.721633
  18         V                 0.114294          0.358722
  19         V                 0.147479          0.406668
  20         V                 0.151539          0.401004
  21         V                 0.189128          0.653673
  22         V                 0.196167          0.719006
  23         V                 0.205207          0.540517
  24         V                 0.218365          0.482360
  25         V                 0.221412          0.495539
  26         V                 0.227375          0.438246
  27         V                 0.279119          0.838031
  28         V                 0.313612          2.119209
  29         V                 0.380177          1.314047
  30         V                 0.419819          0.793374
  31         V                 0.493080          1.177174
  32         V                 0.632812          1.735761
  33         V                 0.659751          1.576285
  34         V                 0.700283          1.699006
  35         V                 0.736390          1.551930
  36         V                 0.755724          1.859129
  37         V                 0.771850          1.912404
  38         V                 0.781513          1.901023
  39         V                 0.794294          1.823673
  40         V                 0.842099          1.755449
  41         V                 0.855383          1.897029
  42         V                 0.857165          1.717661
  43         V                 0.862766          1.869192
  44         V                 0.867057          2.326821
  45         V                 0.955361          1.768438
  46         V                 1.010325          2.445231
  47         V                 1.049035          1.720029
  48         V                 1.129762          2.944361
  49         V                 1.288307          2.238628
  50         V                 1.296934          2.201969
  51         V                 1.317490          2.115988
  52         V                 1.372721          2.285157
  53         V                 1.399369          2.479143
  54         V                 1.417641          3.489922
  55         V                 1.732318          2.624598
  56         V                 1.803410          2.624339
  57         V                 1.823734          2.872317
  58         V                 1.942158          3.320523
  59         V                 1.975098          3.234054
  60         V                 2.157268          3.242008
  61         V                 2.292213          3.207907
  62         V                 2.357687          3.927358
  63         V                 2.379393          4.302140
  64         V                 2.540795          4.222008
  65         V                 2.620377          3.954638
  66         V                 2.859577          4.932096
  67         V                 2.965996          6.092259
  68         V                 3.239761          5.912391
  69         V                 3.391304          6.638971
  70         V                 3.414400          6.169739
  71         V                 3.481599          6.927867
  72         V                 3.585825          6.034592
  73         V                 3.937260          8.491952
  74         V                 3.965187          8.962642
  75         V                 3.994931          8.470264
  76         V                 4.089642          7.813327
  77         V                 4.278784          7.471125
  78         V                 4.392611          9.000127
  79         V                 4.673754          7.149729
  80         V                 4.674731          7.160747
  81         V                 4.719284          8.325389
  82         V                 4.792020          7.182785
  83         V                 4.812099          7.267477
  84         V                 4.822349          7.272067
  85         V                 4.922138          7.365826
  86         V                 4.961236          7.410719
  87         V                 5.129703          7.728942
  88         V                 5.154652          7.761557
  89         V                 5.516084          9.460035
  90         V                 5.940917          8.941990
  91         V                24.623198         60.829101
  92         V                35.533722         89.077158
  93         V                35.917898         88.979278
 Total kinetic energy from orbitals= 1.489402701889D+02
 1|1|UNPC-DESKTOP-KC5UJLK|SP|RAPFD|6-311+G(2d,p)|C1H2N2|23122|05-Feb-20
 22|0||# apfd/6-311+g(2d,p) geom=connectivity pop=full int=ultrafine||E
 nergy Calculation(GC)||0,1|H,0,-0.59038406,-1.91571574,-0.4892416|H,0,
 -0.20603847,-1.15273181,0.85534879|N,0,-0.61650489,-0.2398989,-0.48679
 369|N,0,-1.12936247,0.76800853,-0.9748793|C,0,-0.17807915,-1.19470718,
 -0.03652469||Version=IA32W-G09RevD.01|State=1-A|HF=-148.5412338|RMSD=5
 .206e-009|Dipole=0.0483461,-0.7950035,0.4605657|Quadrupole=-0.9618549,
 -0.2077322,1.1695871,1.2591598,-0.0286326,0.7735975|PG=C01 [X(C1H2N2)]
 ||@


 ROSE IS A RED
 TY COBB IS BLUE
 'CAUSE PETE JUST HIT
 NO. 4592.
 Job cpu time:       0 days  0 hours  0 minutes 16.0 seconds.
 File lengths (MBytes):  RWF=      5 Int=      0 D2E=      0 Chk=      1 Scr=      1
 Normal termination of Gaussian 09 at Sat Feb 05 10:03:10 2022.
