 Entering Link 1 = C:\G09W\l1.exe PID=      8496.
  
 Copyright (c) 1988,1990,1992,1993,1995,1998,2003,2009,2013,
            Gaussian, Inc.  All Rights Reserved.
  
 This is part of the Gaussian(R) 09 program.  It is based on
 the Gaussian(R) 03 system (copyright 2003, Gaussian, Inc.),
 the Gaussian(R) 98 system (copyright 1998, Gaussian, Inc.),
 the Gaussian(R) 94 system (copyright 1995, Gaussian, Inc.),
 the Gaussian 92(TM) system (copyright 1992, Gaussian, Inc.),
 the Gaussian 90(TM) system (copyright 1990, Gaussian, Inc.),
 the Gaussian 88(TM) system (copyright 1988, Gaussian, Inc.),
 the Gaussian 86(TM) system (copyright 1986, Carnegie Mellon
 University), and the Gaussian 82(TM) system (copyright 1983,
 Carnegie Mellon University). Gaussian is a federally registered
 trademark of Gaussian, Inc.
  
 This software contains proprietary and confidential information,
 including trade secrets, belonging to Gaussian, Inc.
  
 This software is provided under written license and may be
 used, copied, transmitted, or stored only in accord with that
 written license.
  
 The following legend is applicable only to US Government
 contracts under FAR:
  
                    RESTRICTED RIGHTS LEGEND
  
 Use, reproduction and disclosure by the US Government is
 subject to restrictions as set forth in subparagraphs (a)
 and (c) of the Commercial Computer Software - Restricted
 Rights clause in FAR 52.227-19.
  
 Gaussian, Inc.
 340 Quinnipiac St., Bldg. 40, Wallingford CT 06492
  
  
 ---------------------------------------------------------------
 Warning -- This program may not be used in any manner that
 competes with the business of Gaussian, Inc. or will provide
 assistance to any competitor of Gaussian, Inc.  The licensee
 of this program is prohibited from giving any competitor of
 Gaussian, Inc. access to this program.  By using this program,
 the user acknowledges that Gaussian, Inc. is engaged in the
 business of creating and licensing software in the field of
 computational chemistry and represents and warrants to the
 licensee that it is not a competitor of Gaussian, Inc. and that
 it will not use this program in any manner prohibited above.
 ---------------------------------------------------------------
  

 Cite this work as:
 Gaussian 09, Revision D.01,
 M. J. Frisch, G. W. Trucks, H. B. Schlegel, G. E. Scuseria, 
 M. A. Robb, J. R. Cheeseman, G. Scalmani, V. Barone, B. Mennucci, 
 G. A. Petersson, H. Nakatsuji, M. Caricato, X. Li, H. P. Hratchian, 
 A. F. Izmaylov, J. Bloino, G. Zheng, J. L. Sonnenberg, M. Hada, 
 M. Ehara, K. Toyota, R. Fukuda, J. Hasegawa, M. Ishida, T. Nakajima, 
 Y. Honda, O. Kitao, H. Nakai, T. Vreven, J. A. Montgomery, Jr., 
 J. E. Peralta, F. Ogliaro, M. Bearpark, J. J. Heyd, E. Brothers, 
 K. N. Kudin, V. N. Staroverov, T. Keith, R. Kobayashi, J. Normand, 
 K. Raghavachari, A. Rendell, J. C. Burant, S. S. Iyengar, J. Tomasi, 
 M. Cossi, N. Rega, J. M. Millam, M. Klene, J. E. Knox, J. B. Cross, 
 V. Bakken, C. Adamo, J. Jaramillo, R. Gomperts, R. E. Stratmann, 
 O. Yazyev, A. J. Austin, R. Cammi, C. Pomelli, J. W. Ochterski, 
 R. L. Martin, K. Morokuma, V. G. Zakrzewski, G. A. Voth, 
 P. Salvador, J. J. Dannenberg, S. Dapprich, A. D. Daniels, 
 O. Farkas, J. B. Foresman, J. V. Ortiz, J. Cioslowski, 
 and D. J. Fox, Gaussian, Inc., Wallingford CT, 2013.
 
 ******************************************
 Gaussian 09:  IA32W-G09RevD.01 24-Apr-2013
                07-Feb-2022 
 ******************************************
 %chk=D:\mindmap\gaussian\calculate\opt_freq\ch3n2_linear\freq.chk
 %nprocshared=4
 Will use up to    4 processors via shared memory.
 %mem=1GB
 ------------------------------------------------------------------
 # freq apfd/6-311+g(2d,p) pop=full geom=connectivity int=ultrafine
 ------------------------------------------------------------------
 1/10=4,30=1,38=1,57=2/1,3;
 2/12=2,17=6,18=5,40=1/2;
 3/5=4,6=6,7=112,11=2,16=1,25=1,30=1,71=2,74=-44,75=-5,140=1/1,2,3;
 4//1;
 5/5=2,38=5,98=1/2;
 8/6=4,10=90,11=11/1;
 11/6=1,8=1,9=11,15=111,16=1/1,2,10;
 10/6=1/2;
 6/7=3,18=1,28=1/1;
 7/8=1,10=1,25=1/1,2,3,16;
 1/10=4,30=1/3;
 99//99;
 ----------------------
 Energy Calculation(GC)
 ----------------------
 Symbolic Z-matrix:
 Charge =  0 Multiplicity = 1
 H                    -0.00287  -1.63642   0.95382 
 H                    -0.00287  -1.63642  -0.95382 
 N                     0.        0.15457   0. 
 N                     0.00166   1.28529   0. 
 C                    -0.00098  -1.13437   0. 
 

 GradGradGradGradGradGradGradGradGradGradGradGradGradGradGradGradGradGrad
 Berny optimization.
 Initialization pass.
 Trust Radius=3.00D-01 FncErr=1.00D-07 GrdErr=1.00D-07
 Number of steps in this run=      2 maximum allowed number of steps=      2.
 GradGradGradGradGradGradGradGradGradGradGradGradGradGradGradGradGradGrad

                          Input orientation:                          
 ---------------------------------------------------------------------
 Center     Atomic      Atomic             Coordinates (Angstroms)
 Number     Number       Type             X           Y           Z
 ---------------------------------------------------------------------
      1          1           0       -0.002872   -1.636416    0.953824
      2          1           0       -0.002872   -1.636416   -0.953824
      3          7           0        0.000000    0.154572    0.000000
      4          7           0        0.001663    1.285294    0.000000
      5          6           0       -0.000983   -1.134372    0.000000
 ---------------------------------------------------------------------
                    Distance matrix (angstroms):
                    1          2          3          4          5
     1  H    0.000000
     2  H    1.907648   0.000000
     3  N    2.029144   2.029144   0.000000
     4  N    3.073465   3.073465   1.130723   0.000000
     5  C    1.077883   1.077883   1.288944   2.419667   0.000000
 Stoichiometry    CH2N2
 Framework group  CS[SG(CN2),X(H2)]
 Deg. of freedom     6
 Full point group                 CS      NOp   2
 Largest Abelian subgroup         CS      NOp   2
 Largest concise Abelian subgroup CS      NOp   2
                         Standard orientation:                         
 ---------------------------------------------------------------------
 Center     Atomic      Atomic             Coordinates (Angstroms)
 Number     Number       Type             X           Y           Z
 ---------------------------------------------------------------------
      1          1           0       -0.002871   -1.636416    0.953824
      2          1           0       -0.002871   -1.636416   -0.953824
      3          7           0        0.000000    0.154572    0.000000
      4          7           0        0.001663    1.285294    0.000000
      5          6           0       -0.000983   -1.134372    0.000000
 ---------------------------------------------------------------------
 Rotational constants (GHZ):    275.5907409     11.4715336     11.0131121
 Standard basis: 6-311+G(2d,p) (5D, 7F)
 There are    69 symmetry adapted cartesian basis functions of A'  symmetry.
 There are    30 symmetry adapted cartesian basis functions of A"  symmetry.
 There are    63 symmetry adapted basis functions of A'  symmetry.
 There are    30 symmetry adapted basis functions of A"  symmetry.
    93 basis functions,   142 primitive gaussians,    99 cartesian basis functions
    11 alpha electrons       11 beta electrons
       nuclear repulsion energy        61.5906046085 Hartrees.
 NAtoms=    5 NActive=    5 NUniq=    4 SFac= 1.56D+00 NAtFMM=   60 NAOKFM=F Big=F
 Integral buffers will be    262144 words long.
 Raffenetti 2 integral format.
 Two-electron integral symmetry is turned on.
 R6APFD:  NTU= -4 IXU= 1 FactS= 1.050
 Nuclear repulsion after empirical dispersion term =       61.5903459925 Hartrees.
 One-electron integrals computed using PRISM.
 NBasis=    93 RedAO= T EigKep=  8.21D-05  NBF=    63    30
 NBsUse=    93 1.00D-06 EigRej= -1.00D+00 NBFU=    63    30
 ExpMin= 4.38D-02 ExpMax= 6.29D+03 ExpMxC= 9.49D+02 IAcc=3 IRadAn=         5 AccDes= 0.00D+00
 Harris functional with IExCor= 3731 and IRadAn=       5 diagonalized for initial guess.
 HarFok:  IExCor= 3731 AccDes= 0.00D+00 IRadAn=         5 IDoV= 1 UseB2=F ITyADJ=14
 ICtDFT=  3500011 ScaDFX=  1.000000  1.000000  1.000000  1.000000
 FoFCou: FMM=F IPFlag=           0 FMFlag=      100000 FMFlg1=           0
         NFxFlg=           0 DoJE=T BraDBF=F KetDBF=T FulRan=T
         wScrn=  0.000000 ICntrl=     500 IOpCl=  0 I1Cent=   200000004 NGrid=           0
         NMat0=    1 NMatS0=      1 NMatT0=    0 NMatD0=    1 NMtDS0=    0 NMtDT0=    0
 Petite list used in FoFCou.
 Initial guess orbital symmetries:
       Occupied  (A') (A') (A') (A') (A') (A') (A") (A') (A') (A")
                 (A')
       Virtual   (A") (A') (A') (A') (A") (A') (A') (A') (A") (A')
                 (A') (A") (A') (A') (A") (A') (A') (A') (A') (A")
                 (A') (A") (A') (A") (A') (A') (A") (A') (A') (A")
                 (A") (A') (A') (A") (A') (A') (A') (A') (A") (A')
                 (A") (A') (A') (A') (A") (A') (A") (A') (A') (A")
                 (A") (A') (A') (A") (A') (A') (A") (A") (A') (A')
                 (A') (A') (A") (A') (A") (A') (A") (A') (A') (A")
                 (A') (A') (A") (A') (A") (A') (A') (A") (A') (A')
                 (A') (A')
 The electronic state of the initial guess is 1-A'.
 Keep R1 ints in memory in symmetry-blocked form, NReq=14475237.
 Requested convergence on RMS density matrix=1.00D-08 within 128 cycles.
 Requested convergence on MAX density matrix=1.00D-06.
 Requested convergence on             energy=1.00D-06.
 No special actions if energy rises.
 SCF Done:  E(RAPFD) =  -148.658698654     A.U. after   11 cycles
            NFock= 11  Conv=0.75D-08     -V/T= 2.0035
 DoSCS=F DFT=T ScalE2(SS,OS)=  1.000000  1.000000
 Range of M.O.s used for correlation:     1    93
 NBasis=    93 NAE=    11 NBE=    11 NFC=     0 NFV=     0
 NROrb=     93 NOA=    11 NOB=    11 NVA=    82 NVB=    82

 **** Warning!!: The largest alpha MO coefficient is  0.60867475D+02

 R6APFD:  NTU= -4 IXU= 1 FactS= 1.050
 Symmetrizing basis deriv contribution to polar:
 IMax=3 JMax=2 DiffMx= 0.00D+00
 G2DrvN: will do     6 centers at a time, making    1 passes.
 Calling FoFCou, ICntrl=  3107 FMM=F I1Cent=   0 AccDes= 0.00D+00.
 End of G2Drv F.D. properties file   721 does not exist.
 End of G2Drv F.D. properties file   722 does not exist.
 End of G2Drv F.D. properties file   788 does not exist.
          IDoAtm=11111
          Differentiating once with respect to electric field.
                with respect to dipole field.
          Differentiating once with respect to nuclear coordinates.
 Keep R1 ints in memory in symmetry-blocked form, NReq=14427790.
          There are    15 degrees of freedom in the 1st order CPHF.  IDoFFX=4 NUNeed=    15.
     15 vectors produced by pass  0 Test12= 6.01D-15 6.67D-09 XBig12= 7.91D+01 7.32D+00.
 AX will form    15 AO Fock derivatives at one time.
     15 vectors produced by pass  1 Test12= 6.01D-15 6.67D-09 XBig12= 3.67D+01 2.19D+00.
     15 vectors produced by pass  2 Test12= 6.01D-15 6.67D-09 XBig12= 4.74D-01 1.79D-01.
     15 vectors produced by pass  3 Test12= 6.01D-15 6.67D-09 XBig12= 2.68D-03 1.64D-02.
     15 vectors produced by pass  4 Test12= 6.01D-15 6.67D-09 XBig12= 5.82D-06 7.41D-04.
     11 vectors produced by pass  5 Test12= 6.01D-15 6.67D-09 XBig12= 1.33D-08 2.85D-05.
      5 vectors produced by pass  6 Test12= 6.01D-15 6.67D-09 XBig12= 2.35D-11 1.75D-06.
      1 vectors produced by pass  7 Test12= 6.01D-15 6.67D-09 XBig12= 5.76D-14 7.34D-08.
 InvSVY:  IOpt=1 It=  1 EMax= 5.33D-15
 Solved reduced A of dimension    92 with    15 vectors.
 Isotropic polarizability for W=    0.000000       29.30 Bohr**3.
 End of Minotr F.D. properties file   721 does not exist.
 End of Minotr F.D. properties file   722 does not exist.
 End of Minotr F.D. properties file   788 does not exist.

 **********************************************************************

            Population analysis using the SCF density.

 **********************************************************************

 Orbital symmetries:
       Occupied  (A') (A') (A') (A') (A') (A') (A") (A') (A') (A")
                 (A')
       Virtual   (A") (A') (A') (A") (A') (A') (A') (A") (A') (A')
                 (A') (A") (A') (A') (A") (A') (A') (A') (A') (A")
                 (A') (A") (A') (A") (A') (A') (A") (A') (A') (A")
                 (A") (A') (A') (A') (A") (A') (A') (A") (A') (A")
                 (A') (A') (A') (A') (A") (A') (A") (A') (A') (A")
                 (A') (A") (A') (A") (A') (A') (A") (A") (A') (A')
                 (A') (A') (A") (A') (A") (A') (A") (A') (A') (A")
                 (A') (A') (A") (A') (A") (A') (A') (A") (A') (A')
                 (A') (A')
 The electronic state is 1-A'.
 Alpha  occ. eigenvalues --  -14.49711 -14.42223 -10.23286  -1.14095  -0.87265
 Alpha  occ. eigenvalues --   -0.57321  -0.53950  -0.50025  -0.46423  -0.41313
 Alpha  occ. eigenvalues --   -0.23764
 Alpha virt. eigenvalues --   -0.05116   0.00623   0.01288   0.05219   0.05271
 Alpha virt. eigenvalues --    0.08679   0.10894   0.13534   0.14031   0.14624
 Alpha virt. eigenvalues --    0.19102   0.21517   0.22370   0.22486   0.23967
 Alpha virt. eigenvalues --    0.27006   0.30446   0.41219   0.51105   0.53214
 Alpha virt. eigenvalues --    0.55571   0.56131   0.64176   0.67679   0.75530
 Alpha virt. eigenvalues --    0.76251   0.76411   0.78152   0.80871   0.85699
 Alpha virt. eigenvalues --    0.87132   0.88547   0.89787   0.96224   0.97480
 Alpha virt. eigenvalues --    0.99663   1.16238   1.25570   1.26471   1.30345
 Alpha virt. eigenvalues --    1.30581   1.40257   1.42568   1.66171   1.71588
 Alpha virt. eigenvalues --    1.82614   1.92824   1.98720   2.05884   2.14232
 Alpha virt. eigenvalues --    2.37445   2.38063   2.60531   2.65249   2.82486
 Alpha virt. eigenvalues --    2.87539   3.22708   3.28315   3.42257   3.44942
 Alpha virt. eigenvalues --    3.58343   3.81492   3.85722   3.97754   4.01419
 Alpha virt. eigenvalues --    4.02530   4.08739   4.51864   4.53790   4.63500
 Alpha virt. eigenvalues --    4.64864   4.73087   4.80371   4.82296   4.85580
 Alpha virt. eigenvalues --    5.22789   5.24695   5.30865   6.16994  24.24640
 Alpha virt. eigenvalues --   35.36457  36.12068
     Molecular Orbital Coefficients:
                           1         2         3         4         5
                           O         O         O         O         O
     Eigenvalues --   -14.49711 -14.42223 -10.23286  -1.14095  -0.87265
   1 1   H  1S         -0.00009   0.00002   0.00022   0.00610   0.03926
   2        2S         -0.00192  -0.00042  -0.00509   0.00929   0.04651
   3        3S          0.00089   0.00045   0.00197  -0.00334  -0.00542
   4        4PX         0.00000   0.00000   0.00000   0.00000   0.00001
   5        4PY        -0.00046  -0.00005  -0.00129   0.00158   0.00591
   6        4PZ         0.00035  -0.00016   0.00160  -0.00122  -0.00710
   7 2   H  1S         -0.00009   0.00002   0.00022   0.00610   0.03926
   8        2S         -0.00192  -0.00042  -0.00509   0.00929   0.04651
   9        3S          0.00089   0.00045   0.00197  -0.00334  -0.00542
  10        4PX         0.00000   0.00000   0.00000   0.00000   0.00001
  11        4PY        -0.00046  -0.00005  -0.00129   0.00158   0.00591
  12        4PZ        -0.00035   0.00016  -0.00160   0.00122   0.00710
  13 3   N  1S          0.55750  -0.00493  -0.00009  -0.09983  -0.04316
  14        2S          0.46562  -0.00393  -0.00007  -0.15777  -0.06929
  15        2PX         0.00000   0.00000   0.00000   0.00013  -0.00020
  16        2PY         0.00007   0.00062  -0.00048   0.07741  -0.18038
  17        2PZ         0.00000   0.00000   0.00000   0.00000   0.00000
  18        3S          0.01534   0.00145   0.00318   0.43539   0.19436
  19        3PX         0.00000   0.00000   0.00000   0.00017  -0.00029
  20        3PY         0.00174  -0.00267   0.00105   0.09840  -0.25616
  21        3PZ         0.00000   0.00000   0.00000   0.00000   0.00000
  22        4S          0.00985  -0.01305  -0.01926   0.17059   0.17845
  23        4PX         0.00001   0.00001   0.00001  -0.00001  -0.00007
  24        4PY         0.00675   0.00853   0.01120  -0.00230  -0.05886
  25        4PZ         0.00000   0.00000   0.00000   0.00000   0.00000
  26        5S          0.01712   0.00798   0.01468  -0.10047  -0.21975
  27        5PX         0.00001   0.00001   0.00000  -0.00004  -0.00007
  28        5PY         0.00716   0.00581   0.00226  -0.02214  -0.04148
  29        5PZ         0.00000   0.00000   0.00000   0.00000   0.00000
  30        6D 0       -0.00031  -0.00002  -0.00013  -0.00853  -0.00054
  31        6D+1        0.00000   0.00000   0.00000   0.00000   0.00000
  32        6D-1        0.00000   0.00000   0.00000   0.00000   0.00000
  33        6D+2       -0.00071  -0.00007  -0.00043  -0.01538  -0.00114
  34        6D-2        0.00000   0.00000   0.00000   0.00004  -0.00001
  35        7D 0       -0.00209   0.00311   0.00321  -0.00208  -0.00295
  36        7D+1        0.00000   0.00000   0.00000   0.00000   0.00000
  37        7D-1        0.00000   0.00000   0.00000   0.00000   0.00000
  38        7D+2       -0.00304   0.00553   0.00671  -0.00876  -0.00703
  39        7D-2        0.00001  -0.00001  -0.00001   0.00002   0.00001
  40 4   N  1S          0.00478   0.55755   0.00001  -0.07918   0.05154
  41        2S          0.00429   0.46572  -0.00025  -0.12448   0.08227
  42        2PX         0.00000   0.00000   0.00000  -0.00015   0.00008
  43        2PY        -0.00073  -0.00176   0.00002  -0.10011   0.04692
  44        2PZ         0.00000   0.00000   0.00000   0.00000   0.00000
  45        3S         -0.00129   0.01730   0.00405   0.33863  -0.23625
  46        3PX         0.00001  -0.00001  -0.00001  -0.00020   0.00011
  47        3PY         0.00405  -0.00375  -0.00232  -0.13649   0.06292
  48        3PZ         0.00000   0.00000   0.00000   0.00000   0.00000
  49        4S         -0.01462  -0.00935  -0.00301   0.18836  -0.16793
  50        4PX         0.00001   0.00000   0.00000  -0.00007   0.00005
  51        4PY         0.00699   0.00240   0.00142  -0.04986   0.02883
  52        4PZ         0.00000   0.00000   0.00000   0.00000   0.00000
  53        5S         -0.01571  -0.00629  -0.00988   0.04776   0.18112
  54        5PX         0.00000   0.00000   0.00000  -0.00001  -0.00007
  55        5PY         0.00260   0.00031   0.00244  -0.00475  -0.05035
  56        5PZ         0.00000   0.00000   0.00000   0.00000   0.00000
  57        6D 0        0.00014  -0.00044  -0.00011  -0.00756   0.00378
  58        6D+1        0.00000   0.00000   0.00000   0.00000   0.00000
  59        6D-1        0.00000   0.00000   0.00000   0.00000   0.00000
  60        6D+2        0.00027  -0.00082  -0.00015  -0.01419   0.00719
  61        6D-2        0.00000   0.00000   0.00000   0.00004  -0.00002
  62        7D 0        0.00144  -0.00013   0.00021  -0.00706  -0.00020
  63        7D+1        0.00000   0.00000   0.00000   0.00000   0.00000
  64        7D-1        0.00000   0.00000   0.00000   0.00000   0.00000
  65        7D+2        0.00234  -0.00019   0.00006  -0.01465   0.00143
  66        7D-2       -0.00001   0.00000   0.00000   0.00004  -0.00001
  67 5   C  1S         -0.00002   0.00006   0.56324  -0.02112  -0.08328
  68        2S          0.00018  -0.00030   0.46288  -0.03254  -0.12919
  69        2PX         0.00000   0.00000   0.00000   0.00002   0.00001
  70        2PY         0.00045  -0.00013   0.00086   0.02852   0.07850
  71        2PZ         0.00000   0.00000   0.00000   0.00000   0.00000
  72        3S         -0.00114   0.00382   0.02219   0.07781   0.33297
  73        3PX         0.00000   0.00000   0.00000   0.00003   0.00001
  74        3PY        -0.00339   0.00420   0.00500   0.04100   0.10729
  75        3PZ         0.00000   0.00000   0.00000   0.00000   0.00000
  76        4S          0.00270   0.01191   0.01037   0.02033   0.16173
  77        4PX         0.00000   0.00000   0.00000   0.00002   0.00000
  78        4PY        -0.00063   0.00441   0.00451   0.00804   0.02730
  79        4PZ         0.00000   0.00000   0.00000   0.00000   0.00000
  80        5S         -0.00162  -0.00146  -0.00439   0.03137   0.02674
  81        5PX         0.00000   0.00000   0.00000   0.00001   0.00000
  82        5PY        -0.00100  -0.00160  -0.00134   0.01452   0.00718
  83        5PZ         0.00000   0.00000   0.00000   0.00000   0.00000
  84        6D 0        0.00036  -0.00025   0.00004  -0.00279  -0.00475
  85        6D+1        0.00000   0.00000   0.00000   0.00000   0.00000
  86        6D-1        0.00000   0.00000   0.00000   0.00000   0.00000
  87        6D+2        0.00048  -0.00030  -0.00134  -0.00615  -0.01535
  88        6D-2        0.00000   0.00000   0.00000   0.00001   0.00002
  89        7D 0        0.00191  -0.00019   0.00165  -0.00623  -0.00475
  90        7D+1        0.00000   0.00000   0.00000   0.00000   0.00000
  91        7D-1        0.00000   0.00000   0.00000   0.00000   0.00000
  92        7D+2        0.00114  -0.00086  -0.00192  -0.00728  -0.01168
  93        7D-2        0.00000   0.00000   0.00000   0.00001   0.00001
                           6         7         8         9        10
                           O         O         O         O         O
     Eigenvalues --    -0.57321  -0.53950  -0.50025  -0.46423  -0.41313
   1 1   H  1S         -0.11879   0.08806   0.00004  -0.02738  -0.12107
   2        2S         -0.16397   0.14507   0.00001  -0.04425  -0.18407
   3        3S         -0.02573   0.01507   0.00007  -0.00897  -0.06189
   4        4PX        -0.00003   0.00004   0.00542  -0.00001  -0.00004
   5        4PY        -0.00465   0.00657  -0.00001  -0.00020  -0.01322
   6        4PZ         0.01991  -0.01211   0.00000   0.00492   0.01109
   7 2   H  1S         -0.11879  -0.08806   0.00004  -0.02738   0.12107
   8        2S         -0.16397  -0.14507   0.00001  -0.04425   0.18407
   9        3S         -0.02573  -0.01507   0.00007  -0.00897   0.06189
  10        4PX        -0.00003  -0.00004   0.00542  -0.00001   0.00004
  11        4PY        -0.00465  -0.00657  -0.00001  -0.00020   0.01322
  12        4PZ        -0.01991  -0.01211   0.00000  -0.00492   0.01109
  13 3   N  1S         -0.04378   0.00000   0.00007   0.02487   0.00000
  14        2S         -0.07159   0.00000   0.00012   0.04112   0.00000
  15        2PX         0.00006   0.00000   0.22468  -0.00033   0.00000
  16        2PY        -0.07193   0.00000  -0.00031  -0.12611   0.00000
  17        2PZ         0.00000   0.18203   0.00000   0.00000   0.13287
  18        3S          0.21641   0.00000  -0.00033  -0.13309   0.00000
  19        3PX         0.00010   0.00000   0.34857  -0.00050   0.00000
  20        3PY        -0.10642   0.00000  -0.00048  -0.18401   0.00000
  21        3PZ         0.00000   0.28084   0.00000   0.00000   0.20561
  22        4S          0.22398   0.00000  -0.00078  -0.14349   0.00000
  23        4PX         0.00011   0.00000   0.21438  -0.00035   0.00000
  24        4PY        -0.01738   0.00000  -0.00021  -0.14036   0.00000
  25        4PZ         0.00000   0.16764   0.00000   0.00000   0.14346
  26        5S         -0.25658   0.00000   0.00080   0.11246   0.00000
  27        5PX        -0.00019   0.00000  -0.00465   0.00004   0.00000
  28        5PY        -0.11166   0.00000   0.00049   0.02723   0.00000
  29        5PZ         0.00000   0.00130   0.00000   0.00000   0.03184
  30        6D 0       -0.00097   0.00000   0.00000   0.00225   0.00000
  31        6D+1        0.00000   0.00001   0.00000   0.00000   0.00002
  32        6D-1        0.00000   0.00223   0.00000   0.00000   0.01359
  33        6D+2       -0.00166   0.00000   0.00003   0.00405   0.00000
  34        6D-2        0.00000   0.00000   0.00740  -0.00002   0.00000
  35        7D 0        0.00109   0.00000   0.00003  -0.00529   0.00000
  36        7D+1        0.00000   0.00001   0.00000   0.00000   0.00006
  37        7D-1        0.00000   0.00460   0.00000   0.00000   0.04320
  38        7D+2        0.00244   0.00000   0.00009  -0.00636   0.00000
  39        7D-2       -0.00003   0.00000   0.00595   0.00000   0.00000
  40 4   N  1S          0.03390   0.00000  -0.00008  -0.07406   0.00000
  41        2S          0.05481   0.00000  -0.00014  -0.11984   0.00000
  42        2PX         0.00005   0.00000   0.15649   0.00018   0.00000
  43        2PY        -0.02102   0.00000  -0.00008   0.21190   0.00000
  44        2PZ         0.00000   0.10569   0.00000   0.00000   0.15232
  45        3S         -0.15985   0.00000   0.00043   0.33923   0.00000
  46        3PX         0.00008   0.00000   0.24088   0.00023   0.00000
  47        3PY        -0.02920   0.00000  -0.00019   0.29422   0.00000
  48        3PZ         0.00000   0.16377   0.00000   0.00000   0.22917
  49        4S         -0.19171   0.00000   0.00060   0.55089   0.00000
  50        4PX         0.00007   0.00000   0.15583   0.00005   0.00000
  51        4PY        -0.00527   0.00000  -0.00017   0.13087   0.00000
  52        4PZ         0.00000   0.10016   0.00000   0.00000   0.16701
  53        5S          0.28292   0.00000  -0.00104  -0.05134   0.00000
  54        5PX        -0.00010   0.00000   0.00979   0.00005   0.00000
  55        5PY        -0.07068   0.00000   0.00024   0.04406   0.00000
  56        5PZ         0.00000  -0.00003   0.00000   0.00000   0.00542
  57        6D 0       -0.00043   0.00000   0.00000   0.00889   0.00000
  58        6D+1        0.00000  -0.00002   0.00000   0.00000  -0.00002
  59        6D-1        0.00000  -0.01190   0.00000   0.00000  -0.01229
  60        6D+2       -0.00021   0.00000  -0.00004   0.01421   0.00000
  61        6D-2       -0.00001   0.00000  -0.01577  -0.00003   0.00000
  62        7D 0       -0.00273   0.00000   0.00001   0.00732   0.00000
  63        7D+1        0.00000  -0.00004   0.00000   0.00000  -0.00003
  64        7D-1        0.00000  -0.02763   0.00000   0.00000  -0.02383
  65        7D+2       -0.00342   0.00000  -0.00011   0.00827   0.00000
  66        7D-2       -0.00002   0.00000  -0.03733   0.00000   0.00000
  67 5   C  1S          0.06464   0.00000  -0.00007  -0.00005   0.00000
  68        2S          0.10230   0.00000  -0.00012   0.00024   0.00000
  69        2PX         0.00034   0.00000   0.07549   0.00003   0.00000
  70        2PY         0.15055   0.00000  -0.00011   0.06716   0.00000
  71        2PZ         0.00000   0.14433   0.00000   0.00000  -0.15004
  72        3S         -0.26467   0.00000   0.00035  -0.00058   0.00000
  73        3PX         0.00047   0.00000   0.12034   0.00002   0.00000
  74        3PY         0.20331   0.00000  -0.00011   0.08512   0.00000
  75        3PZ         0.00000   0.20329   0.00000   0.00000  -0.19542
  76        4S         -0.25510   0.00000   0.00060  -0.05338   0.00000
  77        4PX         0.00023   0.00000   0.06992   0.00000   0.00000
  78        4PY         0.08760   0.00000   0.00000   0.02662   0.00000
  79        4PZ         0.00000   0.08904   0.00000   0.00000  -0.14205
  80        5S         -0.02954   0.00000   0.00010  -0.00632   0.00000
  81        5PX         0.00004   0.00000   0.01048   0.00000   0.00000
  82        5PY         0.00500   0.00000   0.00000   0.00251   0.00000
  83        5PZ         0.00000   0.01614   0.00000   0.00000  -0.01819
  84        6D 0       -0.01481   0.00000   0.00000  -0.00461   0.00000
  85        6D+1        0.00000  -0.00002   0.00000   0.00000   0.00005
  86        6D-1        0.00000   0.00368   0.00000   0.00000   0.01359
  87        6D+2       -0.00669   0.00000   0.00001  -0.00404   0.00000
  88        6D-2        0.00000   0.00000   0.01236  -0.00001   0.00000
  89        7D 0       -0.00621   0.00000   0.00001   0.00198   0.00000
  90        7D+1        0.00000   0.00002   0.00000   0.00000   0.00005
  91        7D-1        0.00000   0.03800   0.00000   0.00000   0.02165
  92        7D+2       -0.00382   0.00000  -0.00001   0.00024   0.00000
  93        7D-2       -0.00002   0.00000   0.02300  -0.00003   0.00000
                          11        12        13        14        15
                           O         V         V         V         V
     Eigenvalues --    -0.23764  -0.05116   0.00623   0.01288   0.05219
   1 1   H  1S         -0.00008   0.05817  -0.00013   0.00090  -0.03491
   2        2S         -0.00020   0.12611  -0.00037  -0.01028   0.01396
   3        3S          0.00008   0.21405  -0.00006  -0.27813  -0.59485
   4        4PX         0.01964  -0.00001   0.01919   0.00005  -0.00001
   5        4PY        -0.00005  -0.00368  -0.00005   0.00685  -0.00498
   6        4PZ         0.00002  -0.00059   0.00003  -0.01724   0.01058
   7 2   H  1S         -0.00008  -0.05817  -0.00013   0.00090   0.03491
   8        2S         -0.00020  -0.12611  -0.00037  -0.01028  -0.01396
   9        3S          0.00008  -0.21405  -0.00006  -0.27813   0.59485
  10        4PX         0.01964   0.00001   0.01919   0.00005   0.00001
  11        4PY        -0.00005   0.00368  -0.00005   0.00685   0.00498
  12        4PZ        -0.00002  -0.00059  -0.00003   0.01724   0.01058
  13 3   N  1S          0.00002   0.00000  -0.00001   0.00013   0.00000
  14        2S          0.00004   0.00000  -0.00002   0.00011   0.00000
  15        2PX         0.03777   0.00000  -0.20176  -0.00019   0.00000
  16        2PY         0.00001   0.00000   0.00026   0.00477   0.00000
  17        2PZ         0.00000  -0.19977   0.00000   0.00000   0.02867
  18        3S         -0.00013   0.00000   0.00003  -0.00639   0.00000
  19        3PX         0.06185   0.00000  -0.31937  -0.00031   0.00000
  20        3PY        -0.00001   0.00000   0.00042   0.00325   0.00000
  21        3PZ         0.00000  -0.31651   0.00000   0.00000   0.03197
  22        4S         -0.00019   0.00000   0.00005   0.35095   0.00000
  23        4PX         0.06402   0.00000  -0.37331  -0.00082   0.00000
  24        4PY        -0.00002   0.00000   0.00097  -0.57269   0.00000
  25        4PZ         0.00000  -0.35559   0.00000   0.00000   0.13440
  26        5S          0.00159   0.00000   0.00616  -4.65377   0.00000
  27        5PX        -0.00943   0.00000  -0.65693  -0.00628   0.00000
  28        5PY         0.00100   0.00000   0.00525  -4.19530   0.00000
  29        5PZ         0.00000  -0.36231   0.00000   0.00000  -0.80285
  30        6D 0        0.00000   0.00000   0.00001  -0.00306   0.00000
  31        6D+1        0.00000   0.00002   0.00000   0.00000   0.00000
  32        6D-1        0.00000   0.01354   0.00000   0.00000  -0.00195
  33        6D+2       -0.00005   0.00000   0.00003  -0.00476   0.00000
  34        6D-2       -0.01879   0.00000   0.00313   0.00002   0.00000
  35        7D 0       -0.00002   0.00000   0.00002  -0.03440   0.00000
  36        7D+1        0.00000   0.00006   0.00000   0.00000   0.00000
  37        7D-1        0.00000   0.05067   0.00000   0.00000   0.00266
  38        7D+2       -0.00017   0.00000   0.00013  -0.05596   0.00000
  39        7D-2       -0.07466   0.00000   0.01415   0.00015   0.00000
  40 4   N  1S          0.00000   0.00000   0.00004  -0.01637   0.00000
  41        2S          0.00000   0.00000   0.00007  -0.02674   0.00000
  42        2PX        -0.18936   0.00000   0.14365   0.00009   0.00000
  43        2PY         0.00027   0.00000  -0.00015  -0.00821   0.00000
  44        2PZ         0.00000   0.22057   0.00000   0.00000  -0.06401
  45        3S          0.00001   0.00000  -0.00022   0.07428   0.00000
  46        3PX        -0.27801   0.00000   0.21981   0.00017   0.00000
  47        3PY         0.00039   0.00000  -0.00022  -0.00577   0.00000
  48        3PZ         0.00000   0.33488   0.00000   0.00000  -0.10244
  49        4S         -0.00002   0.00000  -0.00065   0.45150   0.00000
  50        4PX        -0.26745   0.00000   0.29865  -0.00012   0.00000
  51        4PY         0.00040   0.00000  -0.00027  -0.13826   0.00000
  52        4PZ         0.00000   0.41073   0.00000   0.00000  -0.13503
  53        5S         -0.00209   0.00000  -0.00898   8.23603   0.00000
  54        5PX        -0.06271   0.00000   0.47798  -0.00226   0.00000
  55        5PY         0.00053   0.00000   0.00139  -1.79983   0.00000
  56        5PZ         0.00000   0.33819   0.00000   0.00000   0.27215
  57        6D 0        0.00000   0.00000   0.00000  -0.00031   0.00000
  58        6D+1        0.00000   0.00001   0.00000   0.00000   0.00000
  59        6D-1        0.00000   0.00421   0.00000   0.00000   0.00013
  60        6D+2        0.00001   0.00000   0.00003  -0.00094   0.00000
  61        6D-2        0.00545   0.00000   0.00793   0.00001   0.00000
  62        7D 0        0.00000   0.00000   0.00001  -0.00393   0.00000
  63        7D+1        0.00000   0.00003   0.00000   0.00000   0.00001
  64        7D-1        0.00000   0.01751   0.00000   0.00000   0.00221
  65        7D+2        0.00000   0.00000   0.00007  -0.00471   0.00000
  66        7D-2        0.00086   0.00000   0.02301   0.00007   0.00000
  67 5   C  1S         -0.00010   0.00000   0.00000  -0.03887   0.00000
  68        2S         -0.00016   0.00000   0.00000  -0.06495   0.00000
  69        2PX         0.20572   0.00000   0.10208  -0.00004   0.00000
  70        2PY        -0.00027   0.00000  -0.00029  -0.01708   0.00000
  71        2PZ         0.00000  -0.00800   0.00000   0.00000  -0.07299
  72        3S          0.00044   0.00000  -0.00010   0.24579   0.00000
  73        3PX         0.31135   0.00000   0.16071  -0.00012   0.00000
  74        3PY        -0.00044   0.00000  -0.00043  -0.09225   0.00000
  75        3PZ         0.00000  -0.01745   0.00000   0.00000  -0.15632
  76        4S          0.00092   0.00000   0.00168  -0.85543   0.00000
  77        4PX         0.33609   0.00000   0.31254  -0.00049   0.00000
  78        4PY        -0.00043   0.00000  -0.00017  -0.69105   0.00000
  79        4PZ         0.00000  -0.06339   0.00000   0.00000   0.02455
  80        5S          0.00025   0.00000   0.00374  -3.66618   0.00000
  81        5PX         0.07232   0.00000   0.70852   0.00148   0.00000
  82        5PY        -0.00007   0.00000  -0.00031  -0.50688   0.00000
  83        5PZ         0.00000   0.16939   0.00000   0.00000   1.83640
  84        6D 0        0.00000   0.00000  -0.00001  -0.00192   0.00000
  85        6D+1        0.00000  -0.00004   0.00000   0.00000   0.00003
  86        6D-1        0.00000  -0.02174   0.00000   0.00000   0.00473
  87        6D+2        0.00001   0.00000  -0.00001  -0.00182   0.00000
  88        6D-2        0.00661   0.00000  -0.01399  -0.00002   0.00000
  89        7D 0        0.00007   0.00000   0.00002   0.03530   0.00000
  90        7D+1        0.00000  -0.00005   0.00000   0.00000   0.00003
  91        7D-1        0.00000  -0.04705   0.00000   0.00000   0.01313
  92        7D+2       -0.00004   0.00000  -0.00016   0.06552   0.00000
  93        7D-2        0.00163   0.00000  -0.04515  -0.00010   0.00000
                          16        17        18        19        20
                           V         V         V         V         V
     Eigenvalues --     0.05271   0.08679   0.10894   0.13534   0.14031
   1 1   H  1S         -0.01349   0.00020  -0.00077  -0.01190  -0.08814
   2        2S          0.06792   0.00002  -0.05050  -0.02114  -0.10326
   3        3S         -0.22875   0.00395   0.05884  -0.54558  -2.59514
   4        4PX         0.00001  -0.00892   0.00000   0.00004  -0.00002
   5        4PY        -0.00625   0.00001  -0.01038   0.01032  -0.00214
   6        4PZ        -0.00462   0.00001  -0.00389  -0.01160  -0.02237
   7 2   H  1S         -0.01349   0.00020  -0.00077   0.01190  -0.08814
   8        2S          0.06792   0.00002  -0.05050   0.02114  -0.10326
   9        3S         -0.22875   0.00395   0.05884   0.54558  -2.59514
  10        4PX         0.00001  -0.00892   0.00000  -0.00004  -0.00002
  11        4PY        -0.00625   0.00001  -0.01038  -0.01032  -0.00214
  12        4PZ         0.00462  -0.00001   0.00389  -0.01160   0.02237
  13 3   N  1S         -0.01404   0.00000  -0.01834   0.00000   0.00995
  14        2S         -0.02430  -0.00001  -0.03096   0.00000   0.01769
  15        2PX        -0.00011   0.09926   0.00003   0.00000   0.00040
  16        2PY        -0.02985  -0.00014   0.00570   0.00000   0.01080
  17        2PZ         0.00000   0.00000   0.00000  -0.05240   0.00000
  18        3S          0.10543   0.00013   0.12237   0.00000  -0.09059
  19        3PX        -0.00014   0.13444  -0.00001   0.00000   0.00046
  20        3PY        -0.03112  -0.00023  -0.01774   0.00000   0.02771
  21        3PZ         0.00000   0.00000   0.00000  -0.05811   0.00000
  22        4S          0.06706  -0.00156  -0.60840   0.00000   0.38364
  23        4PX        -0.00004   0.38469  -0.00103   0.00000   0.00114
  24        4PY         0.09188   0.00192  -0.78429   0.00000  -0.45079
  25        4PZ         0.00000   0.00000   0.00000  -0.19563   0.00000
  26        5S          2.18520   0.01799  17.05766   0.00000 -11.30150
  27        5PX         0.00067  -0.60033   0.00844   0.00000  -0.01006
  28        5PY         0.08811   0.01457   5.12388   0.00000  -5.83993
  29        5PZ         0.00000   0.00000   0.00000   0.35199   0.00000
  30        6D 0       -0.00241   0.00000   0.00002   0.00000  -0.00254
  31        6D+1        0.00000   0.00000   0.00000  -0.00001   0.00000
  32        6D-1        0.00000   0.00000   0.00000  -0.01187   0.00000
  33        6D+2       -0.00297  -0.00002  -0.00064   0.00000   0.00147
  34        6D-2        0.00001   0.00101   0.00000   0.00000   0.00006
  35        7D 0        0.00000   0.00007   0.03629   0.00000  -0.04168
  36        7D+1        0.00000   0.00000   0.00000   0.00002   0.00000
  37        7D-1        0.00000   0.00000   0.00000   0.01027   0.00000
  38        7D+2       -0.00334   0.00007   0.06797   0.00000  -0.01545
  39        7D-2        0.00003   0.00991  -0.00017   0.00000   0.00005
  40 4   N  1S         -0.01552   0.00000   0.02659   0.00000   0.00152
  41        2S         -0.02643  -0.00001   0.04370   0.00000   0.00269
  42        2PX         0.00006  -0.10166  -0.00001   0.00000   0.00033
  43        2PY         0.02184   0.00009  -0.02804   0.00000  -0.01640
  44        2PZ         0.00000   0.00000   0.00000  -0.08630   0.00000
  45        3S          0.10493   0.00006  -0.14886   0.00000  -0.01339
  46        3PX         0.00008  -0.15197  -0.00007   0.00000   0.00033
  47        3PY         0.01796   0.00012  -0.06959   0.00000  -0.00062
  48        3PZ         0.00000   0.00000   0.00000  -0.09292   0.00000
  49        4S         -0.02059  -0.00145   0.65792   0.00000   0.12995
  50        4PX         0.00024  -0.29149  -0.00093   0.00000   0.00112
  51        4PY         0.17722   0.00101  -0.67503   0.00000  -0.18680
  52        4PZ         0.00000   0.00000   0.00000  -0.34652   0.00000
  53        5S         -0.42052  -0.02761 -15.54397   0.00000  13.76667
  54        5PX         0.00020   0.24497   0.00725   0.00000  -0.01078
  55        5PY        -0.04700   0.00576   5.35241   0.00000  -3.20662
  56        5PZ         0.00000   0.00000   0.00000   1.09864   0.00000
  57        6D 0       -0.00054   0.00000  -0.00111   0.00000   0.00087
  58        6D+1        0.00000   0.00000   0.00000   0.00001   0.00000
  59        6D-1        0.00000   0.00000   0.00000   0.00765   0.00000
  60        6D+2       -0.00154  -0.00002  -0.00117   0.00000   0.00210
  61        6D-2        0.00001  -0.00477   0.00000   0.00000  -0.00006
  62        7D 0        0.00127   0.00002  -0.04357   0.00000  -0.00419
  63        7D+1        0.00000   0.00000   0.00000   0.00005   0.00000
  64        7D-1        0.00000   0.00000   0.00000   0.03108   0.00000
  65        7D+2        0.00593   0.00001  -0.07516   0.00000   0.01005
  66        7D-2        0.00000   0.00281   0.00023   0.00000  -0.00015
  67 5   C  1S          0.00956   0.00008  -0.00268   0.00000  -0.04031
  68        2S          0.01543   0.00013  -0.00442   0.00000  -0.06409
  69        2PX         0.00005  -0.15672  -0.00005   0.00000  -0.00054
  70        2PY         0.02475   0.00035  -0.03439   0.00000  -0.06187
  71        2PZ         0.00000   0.00000   0.00000   0.05759   0.00000
  72        3S         -0.02815  -0.00042  -0.00014   0.00000   0.14853
  73        3PX         0.00019  -0.21946  -0.00008   0.00000  -0.00070
  74        3PY         0.07387   0.00067  -0.04134   0.00000  -0.10598
  75        3PZ         0.00000   0.00000   0.00000   0.07146   0.00000
  76        4S         -0.11128   0.00244  -0.11307   0.00000   0.56455
  77        4PX         0.00004  -0.56686  -0.00060   0.00000  -0.00397
  78        4PY         0.05797   0.00385  -0.53970   0.00000  -1.10550
  79        4PZ         0.00000   0.00000   0.00000   0.39098   0.00000
  80        5S         -1.17874   0.00385  -0.71285   0.00000   0.85369
  81        5PX        -0.00239   1.36501  -0.00159   0.00000   0.00330
  82        5PY        -1.90949  -0.00021  -0.83154   0.00000  -0.47199
  83        5PZ         0.00000   0.00000   0.00000  -0.47608   0.00000
  84        6D 0       -0.00649   0.00002  -0.00522   0.00000  -0.01868
  85        6D+1        0.00000   0.00000   0.00000   0.00002   0.00000
  86        6D-1        0.00000   0.00000   0.00000   0.00506   0.00000
  87        6D+2       -0.00681   0.00000  -0.01049   0.00000   0.00703
  88        6D-2        0.00000   0.00501   0.00001   0.00000  -0.00004
  89        7D 0       -0.05972  -0.00005   0.00072   0.00000  -0.01493
  90        7D+1        0.00000   0.00000   0.00000   0.00006   0.00000
  91        7D-1        0.00000   0.00000   0.00000   0.05203   0.00000
  92        7D+2       -0.03317  -0.00024  -0.00454   0.00000   0.08904
  93        7D-2        0.00001   0.00573   0.00009   0.00000  -0.00022
                          21        22        23        24        25
                           V         V         V         V         V
     Eigenvalues --     0.14624   0.19102   0.21517   0.22370   0.22486
   1 1   H  1S         -0.00044   0.00388  -0.00797  -0.02052  -0.00056
   2        2S         -0.00061   0.02561   0.14270   0.22296   0.00544
   3        3S         -0.01351  -0.06458  -0.00917  -1.21572  -0.03283
   4        4PX        -0.00387  -0.00001   0.00001  -0.00003   0.00199
   5        4PY        -0.00001  -0.00938   0.01118   0.02548   0.00063
   6        4PZ        -0.00011  -0.00474  -0.00906  -0.00272  -0.00007
   7 2   H  1S         -0.00044   0.00388   0.00797  -0.02052  -0.00056
   8        2S         -0.00061   0.02561  -0.14270   0.22296   0.00544
   9        3S         -0.01351  -0.06458   0.00917  -1.21572  -0.03283
  10        4PX        -0.00387  -0.00001  -0.00001  -0.00003   0.00199
  11        4PY        -0.00001  -0.00938  -0.01118   0.02548   0.00063
  12        4PZ         0.00011   0.00474  -0.00906   0.00272   0.00007
  13 3   N  1S          0.00006  -0.01032   0.00000   0.01617   0.00041
  14        2S          0.00010  -0.01764   0.00000   0.02766   0.00069
  15        2PX        -0.01627   0.00008   0.00000   0.00258  -0.09684
  16        2PY         0.00012  -0.03906   0.00000   0.05381   0.00149
  17        2PZ         0.00000   0.00000  -0.09920   0.00000   0.00000
  18        3S         -0.00047   0.02065   0.00000  -0.09249  -0.00238
  19        3PX        -0.00296   0.00018   0.00000   0.00287  -0.10884
  20        3PY         0.00017  -0.02630   0.00000   0.04082   0.00116
  21        3PZ         0.00000   0.00000  -0.12167   0.00000   0.00000
  22        4S          0.00163   0.62534   0.00000  -0.77741  -0.01849
  23        4PX        -0.05104  -0.00047   0.00000   0.01195  -0.51756
  24        4PY        -0.00179  -0.92930   0.00000  -1.44223  -0.03643
  25        4PZ         0.00000   0.00000  -0.52979   0.00000   0.00000
  26        5S         -0.05301  -7.48660   0.00000  -3.34634  -0.09528
  27        5PX         0.30274  -0.00725   0.00000  -0.11886   4.20255
  28        5PY        -0.02622  -5.98816   0.00000 -10.47637  -0.27631
  29        5PZ         0.00000   0.00000   4.23407   0.00000   0.00000
  30        6D 0       -0.00002   0.01418   0.00000   0.00028   0.00001
  31        6D+1        0.00000   0.00000   0.00000   0.00000   0.00000
  32        6D-1        0.00000   0.00000   0.00348   0.00000   0.00000
  33        6D+2       -0.00004   0.02498   0.00000   0.00575   0.00016
  34        6D-2       -0.01047  -0.00007   0.00000  -0.00010   0.00403
  35        7D 0       -0.00021  -0.00063   0.00000   0.02454   0.00057
  36        7D+1        0.00000   0.00000  -0.00008   0.00000   0.00000
  37        7D-1        0.00000   0.00000   0.00564   0.00000   0.00000
  38        7D+2       -0.00002  -0.00871   0.00000   0.04477   0.00100
  39        7D-2        0.01431   0.00003   0.00000   0.00010  -0.01117
  40 4   N  1S          0.00000   0.03609   0.00000  -0.00084  -0.00002
  41        2S         -0.00001   0.05965   0.00000  -0.00008   0.00001
  42        2PX        -0.11264  -0.00008   0.00000  -0.00074   0.02696
  43        2PY         0.00002   0.05542   0.00000   0.01206   0.00027
  44        2PZ         0.00000   0.00000   0.03831   0.00000   0.00000
  45        3S         -0.00001  -0.17924   0.00000  -0.04960  -0.00134
  46        3PX        -0.12550  -0.00003   0.00000  -0.00074   0.02443
  47        3PY         0.00009   0.10977   0.00000  -0.04417  -0.00109
  48        3PZ         0.00000   0.00000   0.03680   0.00000   0.00000
  49        4S          0.00092  -0.47600   0.00000   1.75770   0.04455
  50        4PX        -0.45888  -0.00106   0.00000  -0.00756   0.23394
  51        4PY        -0.00036  -0.16774   0.00000  -0.75161  -0.01941
  52        4PZ         0.00000   0.00000   0.26166   0.00000   0.00000
  53        5S          0.06051  15.58394   0.00000  13.96359   0.36502
  54        5PX         1.28728  -0.00554   0.00000   0.06059  -2.50762
  55        5PY        -0.01521  -4.27525   0.00000  -1.30055  -0.03209
  56        5PZ         0.00000   0.00000  -2.59583   0.00000   0.00000
  57        6D 0        0.00000   0.00639   0.00000  -0.00015   0.00000
  58        6D+1        0.00000   0.00000   0.00000   0.00000   0.00000
  59        6D-1        0.00000   0.00000   0.00313   0.00000   0.00000
  60        6D+2        0.00002   0.01206   0.00000  -0.00077  -0.00001
  61        6D-2        0.00549  -0.00005   0.00000  -0.00009   0.00330
  62        7D 0       -0.00003   0.00627   0.00000  -0.04748  -0.00118
  63        7D+1        0.00000   0.00000  -0.00005   0.00000   0.00000
  64        7D-1        0.00000   0.00000  -0.02379   0.00000   0.00000
  65        7D+2        0.00013   0.00830   0.00000  -0.06576  -0.00174
  66        7D-2        0.03248   0.00001   0.00000   0.00098  -0.02968
  67 5   C  1S         -0.00023   0.03656   0.00000   0.02310   0.00059
  68        2S         -0.00037   0.06157   0.00000   0.03545   0.00090
  69        2PX         0.00526  -0.00013   0.00000   0.00121  -0.04728
  70        2PY        -0.00025  -0.07970   0.00000   0.04204   0.00108
  71        2PZ         0.00000   0.00000  -0.03919   0.00000   0.00000
  72        3S          0.00087  -0.14638   0.00000   0.02196   0.00054
  73        3PX         0.01773  -0.00020   0.00000   0.00102  -0.03249
  74        3PY        -0.00037  -0.21752   0.00000   0.03208   0.00066
  75        3PZ         0.00000   0.00000  -0.07198   0.00000   0.00000
  76        4S          0.00474  -2.60463   0.00000  -3.90169  -0.09996
  77        4PX         0.01912  -0.00120   0.00000   0.00763  -0.34235
  78        4PY        -0.00522  -1.20374   0.00000  -0.86123  -0.02265
  79        4PZ         0.00000   0.00000  -0.44437   0.00000   0.00000
  80        5S          0.00801  -5.46376   0.00000  -5.87980  -0.14719
  81        5PX        -0.79964  -0.00162   0.00000   0.03562  -1.44183
  82        5PY        -0.00028  -1.81415   0.00000  -1.56301  -0.03728
  83        5PZ         0.00000   0.00000  -1.44031   0.00000   0.00000
  84        6D 0       -0.00010  -0.00405   0.00000  -0.00116  -0.00004
  85        6D+1        0.00000   0.00000   0.00000   0.00000   0.00000
  86        6D-1        0.00000   0.00000  -0.00507   0.00000   0.00000
  87        6D+2        0.00004  -0.00278   0.00000   0.01455   0.00038
  88        6D-2        0.00339   0.00002   0.00000   0.00008  -0.00489
  89        7D 0       -0.00006   0.02936   0.00000  -0.00534  -0.00002
  90        7D+1        0.00000   0.00000   0.00018   0.00000   0.00000
  91        7D-1        0.00000   0.00000   0.09736   0.00000   0.00000
  92        7D+2        0.00053   0.06516   0.00000   0.16169   0.00427
  93        7D-2        0.04089   0.00010   0.00000  -0.00073   0.01430
                          26        27        28        29        30
                           V         V         V         V         V
     Eigenvalues --     0.23967   0.27006   0.30446   0.41219   0.51105
   1 1   H  1S          0.02438  -0.00657  -0.00140  -0.05350   0.10497
   2        2S          0.00629  -0.08487   0.13630  -0.62670   1.15189
   3        3S          3.12268  -0.48915  -0.59295   1.08944  -2.90380
   4        4PX        -0.00013  -0.00005   0.00001  -0.00009   0.00006
   5        4PY        -0.02131  -0.03796   0.00869  -0.03430   0.00251
   6        4PZ         0.02609   0.00053   0.00679   0.01047   0.01785
   7 2   H  1S         -0.02438  -0.00657  -0.00140  -0.05350   0.10497
   8        2S         -0.00629  -0.08487   0.13630  -0.62670   1.15189
   9        3S         -3.12268  -0.48915  -0.59295   1.08944  -2.90380
  10        4PX         0.00013  -0.00005   0.00001  -0.00009   0.00006
  11        4PY         0.02131  -0.03796   0.00869  -0.03430   0.00251
  12        4PZ         0.02609  -0.00053  -0.00679  -0.01047  -0.01785
  13 3   N  1S          0.00000  -0.05978   0.01880   0.04272  -0.00011
  14        2S          0.00000  -0.09773   0.03261   0.07327   0.00107
  15        2PX         0.00000   0.00004  -0.00010  -0.00007  -0.00010
  16        2PY         0.00000  -0.05833   0.01601  -0.05645  -0.09008
  17        2PZ         0.06352   0.00000   0.00000   0.00000   0.00000
  18        3S          0.00000   0.16622  -0.15108  -0.26847  -0.01080
  19        3PX         0.00000   0.00008  -0.00014  -0.00018  -0.00016
  20        3PY         0.00000  -0.08342   0.02543  -0.15576  -0.17939
  21        3PZ         0.09626   0.00000   0.00000   0.00000   0.00000
  22        4S          0.00000   3.95870  -0.19214  -0.28986  -0.25229
  23        4PX         0.00000  -0.00041  -0.00122  -0.00429  -0.00517
  24        4PY         0.00000  -1.18238  -0.67080  -3.87028  -3.62946
  25        4PZ         0.35857   0.00000   0.00000   0.00000   0.00000
  26        5S          0.00000 -20.14128 -55.87940  29.56386   0.96911
  27        5PX         0.00000  -0.01305  -0.03160   0.01365  -0.00749
  28        5PY         0.00000  -9.45393 -21.44335   8.35454  -5.55066
  29        5PZ         0.72497   0.00000   0.00000   0.00000   0.00000
  30        6D 0        0.00000   0.01049  -0.01088  -0.01115  -0.00493
  31        6D+1       -0.00001   0.00000   0.00000   0.00000   0.00000
  32        6D-1        0.00433   0.00000   0.00000   0.00000   0.00000
  33        6D+2        0.00000   0.01729  -0.01661  -0.02149  -0.00812
  34        6D-2        0.00000  -0.00004   0.00004   0.00006   0.00003
  35        7D 0        0.00000  -0.10119  -0.08160  -0.08826   0.02459
  36        7D+1       -0.00013   0.00000   0.00000   0.00000   0.00000
  37        7D-1        0.02594   0.00000   0.00000   0.00000   0.00000
  38        7D+2        0.00000  -0.13526  -0.12819  -0.09507   0.00277
  39        7D-2        0.00000   0.00033   0.00024   0.00018   0.00007
  40 4   N  1S          0.00000   0.01100  -0.00056  -0.03628  -0.01438
  41        2S          0.00000   0.02299  -0.00171  -0.05988  -0.02309
  42        2PX         0.00000   0.00006  -0.00011  -0.00013  -0.00015
  43        2PY         0.00000   0.08344  -0.12505  -0.08829  -0.02280
  44        2PZ        -0.08230   0.00000   0.00000   0.00000   0.00000
  45        3S          0.00000  -0.15204   0.00475   0.11546   0.00410
  46        3PX         0.00000   0.00028   0.00000  -0.00024  -0.00047
  47        3PY         0.00000   0.23356  -0.09246  -0.18254  -0.09598
  48        3PZ        -0.10849   0.00000   0.00000   0.00000   0.00000
  49        4S          0.00000   0.07642  -0.00750   3.68884   3.46950
  50        4PX         0.00000  -0.00003  -0.00104  -0.00310  -0.00258
  51        4PY         0.00000   0.29382  -0.89722  -1.82552  -1.85052
  52        4PZ        -0.38251   0.00000   0.00000   0.00000   0.00000
  53        5S          0.00000  21.07656  60.86747 -27.76483   5.72831
  54        5PX         0.00000  -0.00738  -0.02206   0.01051   0.00085
  55        5PY         0.00000  -4.62283 -14.77368   7.32123  -0.22048
  56        5PZ         0.56489   0.00000   0.00000   0.00000   0.00000
  57        6D 0        0.00000  -0.00164   0.00197   0.00907   0.00850
  58        6D+1       -0.00001   0.00000   0.00000   0.00000   0.00000
  59        6D-1       -0.00433   0.00000   0.00000   0.00000   0.00000
  60        6D+2        0.00000  -0.00230   0.00344   0.01605   0.01306
  61        6D-2        0.00000  -0.00001   0.00000  -0.00006  -0.00003
  62        7D 0        0.00000   0.01060  -0.01220  -0.01460  -0.05468
  63        7D+1       -0.00005   0.00000   0.00000   0.00000   0.00000
  64        7D-1        0.01477   0.00000   0.00000   0.00000   0.00000
  65        7D+2        0.00000   0.02511  -0.01081  -0.04400  -0.05231
  66        7D-2        0.00000  -0.00007   0.00003   0.00020   0.00015
  67 5   C  1S          0.00000   0.04551  -0.00827  -0.02256   0.03779
  68        2S          0.00000   0.08027  -0.01382  -0.04022   0.06713
  69        2PX         0.00000  -0.00007   0.00027   0.00003  -0.00056
  70        2PY         0.00000  -0.07381   0.15273   0.15787   0.10775
  71        2PZ        -0.18211   0.00000   0.00000   0.00000   0.00000
  72        3S          0.00000  -0.22341   0.08111   0.19047  -0.14252
  73        3PX         0.00000  -0.00024   0.00040  -0.00034  -0.00218
  74        3PY         0.00000  -0.37290   0.12312   0.02758   0.18360
  75        3PZ        -0.18974   0.00000   0.00000   0.00000   0.00000
  76        4S          0.00000  -3.67842  -1.81863  -4.14054  -4.83192
  77        4PX         0.00000  -0.00230   0.00142  -0.00297   0.00383
  78        4PY         0.00000  -2.35322   0.39632  -3.50607  -2.97983
  79        4PZ        -1.63004   0.00000   0.00000   0.00000   0.00000
  80        5S          0.00000  -0.10473  -2.61585  -1.69609  -1.53438
  81        5PX         0.00000   0.00225   0.00155  -0.00012  -0.00493
  82        5PY         0.00000   1.57995   0.17539   0.05244  -0.94070
  83        5PZ        -2.30002   0.00000   0.00000   0.00000   0.00000
  84        6D 0        0.00000  -0.01529   0.00460  -0.02254   0.00823
  85        6D+1       -0.00005   0.00000   0.00000   0.00000   0.00000
  86        6D-1       -0.00965   0.00000   0.00000   0.00000   0.00000
  87        6D+2        0.00000  -0.01418   0.01085  -0.01790  -0.03321
  88        6D-2        0.00000   0.00002  -0.00005  -0.00002   0.00001
  89        7D 0        0.00000   0.08126   0.00633   0.21090   0.25169
  90        7D+1       -0.00043   0.00000   0.00000   0.00000   0.00000
  91        7D-1       -0.01907   0.00000   0.00000   0.00000   0.00000
  92        7D+2        0.00000   0.16975   0.09238   0.37380   0.11231
  93        7D-2        0.00000   0.00003  -0.00019  -0.00033  -0.00041
                          31        32        33        34        35
                           V         V         V         V         V
     Eigenvalues --     0.53214   0.55571   0.56131   0.64176   0.67679
   1 1   H  1S         -0.09573  -0.00046   0.00150  -0.00722   0.05612
   2        2S         -1.50511  -0.00271   0.01566   0.36393  -0.76924
   3        3S          1.21815   0.01098  -0.02387   0.21580  -2.95561
   4        4PX         0.00051   0.00154   0.03602   0.00015  -0.00028
   5        4PY         0.03731   0.00018  -0.00086   0.02659  -0.03390
   6        4PZ         0.06127  -0.00016  -0.00036  -0.04932   0.11220
   7 2   H  1S          0.09573  -0.00046  -0.00150  -0.00722  -0.05612
   8        2S          1.50511  -0.00271  -0.01566   0.36393   0.76924
   9        3S         -1.21815   0.01098   0.02387   0.21580   2.95561
  10        4PX        -0.00051   0.00154  -0.03602   0.00015   0.00028
  11        4PY        -0.03731   0.00018   0.00086   0.02659   0.03390
  12        4PZ         0.06127   0.00016  -0.00036   0.04932   0.11220
  13 3   N  1S          0.00000  -0.00002   0.00000   0.00128   0.00000
  14        2S          0.00000  -0.00004   0.00000   0.00681   0.00000
  15        2PX         0.00000   0.04089   0.00000  -0.00013   0.00000
  16        2PY         0.00000   0.00029   0.00000  -0.16608   0.00000
  17        2PZ        -0.11958   0.00000   0.00179   0.00000  -0.00605
  18        3S          0.00000   0.00001   0.00000   0.02705   0.00000
  19        3PX         0.00000   0.10783   0.00000  -0.00050   0.00000
  20        3PY         0.00000   0.00080   0.00000  -0.46462   0.00000
  21        3PZ        -0.23476   0.00000   0.00414   0.00000   0.05041
  22        4S          0.00000   0.00228   0.00000  -7.98927   0.00000
  23        4PX         0.00000  -0.33866   0.00000  -0.00392   0.00000
  24        4PY         0.00000   0.00805   0.00000  -1.80914   0.00000
  25        4PZ        -0.21246   0.00000  -0.00041   0.00000  -0.45138
  26        5S          0.00000  -0.03185   0.00000 -19.22318   0.00000
  27        5PX         0.00000  -0.79252   0.00000  -0.01250   0.00000
  28        5PY         0.00000   0.00538   0.00000  -7.91283   0.00000
  29        5PZ        -1.15307   0.00000   0.00970   0.00000  -2.22100
  30        6D 0        0.00000   0.00002   0.00000  -0.00222   0.00000
  31        6D+1        0.00010   0.00000   0.01061   0.00000  -0.00008
  32        6D-1       -0.02005   0.00000   0.00033   0.00000  -0.00112
  33        6D+2        0.00000   0.00005   0.00000   0.00483   0.00000
  34        6D-2        0.00000   0.00602   0.00000   0.00001   0.00000
  35        7D 0        0.00000  -0.00001   0.00000   0.26426   0.00000
  36        7D+1        0.00247   0.00000   0.20649   0.00000  -0.00100
  37        7D-1       -0.07558   0.00000   0.00070   0.00000   0.12346
  38        7D+2        0.00000  -0.00013   0.00000   0.50429   0.00000
  39        7D-2        0.00000   0.08847   0.00000  -0.00119   0.00000
  40 4   N  1S          0.00000   0.00008   0.00000  -0.01694   0.00000
  41        2S          0.00000   0.00013   0.00000  -0.02732   0.00000
  42        2PX         0.00000  -0.03613   0.00000   0.00004   0.00000
  43        2PY         0.00000   0.00012   0.00000   0.04962   0.00000
  44        2PZ         0.03562   0.00000  -0.00059   0.00000   0.03845
  45        3S          0.00000  -0.00036   0.00000  -0.07040   0.00000
  46        3PX         0.00000  -0.10742   0.00000  -0.00013   0.00000
  47        3PY         0.00000   0.00043   0.00000  -0.04996   0.00000
  48        3PZ         0.02211   0.00000  -0.00053   0.00000   0.08151
  49        4S          0.00000  -0.00875   0.00000   5.64843   0.00000
  50        4PX         0.00000   0.12979   0.00000  -0.00630   0.00000
  51        4PY         0.00000   0.00515   0.00000  -4.32509   0.00000
  52        4PZ         0.29109   0.00000  -0.00272   0.00000  -0.04672
  53        5S          0.00000   0.01619   0.00000  20.41536   0.00000
  54        5PX         0.00000   0.61140   0.00000  -0.00520   0.00000
  55        5PY         0.00000  -0.00843   0.00000  -3.72020   0.00000
  56        5PZ         0.57691   0.00000  -0.00501   0.00000   0.90888
  57        6D 0        0.00000  -0.00003   0.00000   0.02127   0.00000
  58        6D+1        0.00003   0.00000   0.00140   0.00000  -0.00001
  59        6D-1        0.01102   0.00000  -0.00014   0.00000  -0.00065
  60        6D+2        0.00000  -0.00004   0.00000   0.03617   0.00000
  61        6D-2        0.00000   0.00162   0.00000  -0.00011   0.00000
  62        7D 0        0.00000   0.00013   0.00000  -0.15354   0.00000
  63        7D+1        0.00100   0.00000   0.07573   0.00000  -0.00034
  64        7D-1        0.08827   0.00000  -0.00203   0.00000   0.01601
  65        7D+2        0.00000  -0.00001   0.00000  -0.23411   0.00000
  66        7D-2        0.00000  -0.03843   0.00000   0.00052   0.00000
  67 5   C  1S          0.00000  -0.00013   0.00000   0.00307   0.00000
  68        2S          0.00000  -0.00023   0.00000  -0.00056   0.00000
  69        2PX         0.00000  -0.23595   0.00000  -0.00018   0.00000
  70        2PY         0.00000  -0.00021   0.00000  -0.17993   0.00000
  71        2PZ         0.08915   0.00000  -0.00226   0.00000  -0.25198
  72        3S          0.00000   0.00085   0.00000   0.10979   0.00000
  73        3PX         0.00000  -0.88966   0.00000  -0.00014   0.00000
  74        3PY         0.00000  -0.00034   0.00000  -0.09948   0.00000
  75        3PZ         0.33692   0.00000  -0.00807   0.00000  -0.76370
  76        4S          0.00000   0.00676   0.00000   0.31918   0.00000
  77        4PX         0.00000   1.83810   0.00000   0.00453   0.00000
  78        4PY         0.00000   0.00751   0.00000   2.81505   0.00000
  79        4PZ         1.59551   0.00000  -0.00231   0.00000   4.59527
  80        5S          0.00000   0.00024   0.00000  -0.63290   0.00000
  81        5PX         0.00000  -0.49609   0.00000   0.00093   0.00000
  82        5PY         0.00000   0.00332   0.00000   0.03215   0.00000
  83        5PZ        -0.43687   0.00000   0.00730   0.00000   1.52465
  84        6D 0        0.00000  -0.00003   0.00000  -0.01012   0.00000
  85        6D+1        0.00012   0.00000   0.00185   0.00000  -0.00001
  86        6D-1        0.03018   0.00000  -0.00044   0.00000  -0.00736
  87        6D+2        0.00000   0.00012   0.00000  -0.01491   0.00000
  88        6D-2        0.00000  -0.01449   0.00000   0.00000   0.00000
  89        7D 0        0.00000  -0.00102   0.00000  -0.62809   0.00000
  90        7D+1        0.01033   0.00000   0.87193   0.00000  -0.00634
  91        7D-1       -0.00011   0.00000  -0.00455   0.00000  -0.39316
  92        7D+2        0.00000  -0.00045   0.00000  -0.43532   0.00000
  93        7D-2        0.00000  -0.10404   0.00000   0.00015   0.00000
                          36        37        38        39        40
                           V         V         V         V         V
     Eigenvalues --     0.75530   0.76251   0.76411   0.78152   0.80871
   1 1   H  1S          0.02134  -0.00017   0.02396  -0.02977   0.00013
   2        2S          1.20040  -0.01197  -0.23324   0.55954   0.00222
   3        3S          0.23513  -0.00086  -0.70728  -0.11897  -0.00001
   4        4PX        -0.00008  -0.02122  -0.00008   0.00040   0.03220
   5        4PY         0.03613  -0.00044  -0.00443   0.06590  -0.00004
   6        4PZ        -0.06645   0.00071   0.04345  -0.10791   0.00027
   7 2   H  1S          0.02134  -0.00017  -0.02396  -0.02977   0.00013
   8        2S          1.20040  -0.01197   0.23324   0.55954   0.00222
   9        3S          0.23513  -0.00086   0.70728  -0.11897  -0.00001
  10        4PX        -0.00008  -0.02122   0.00008   0.00040   0.03220
  11        4PY         0.03613  -0.00044   0.00443   0.06590  -0.00004
  12        4PZ         0.06645  -0.00071   0.04345   0.10791  -0.00027
  13 3   N  1S         -0.00980   0.00010   0.00000  -0.00515  -0.00007
  14        2S         -0.01857   0.00019   0.00000  -0.01206  -0.00012
  15        2PX        -0.00137  -0.11581   0.00000   0.00003   0.11795
  16        2PY        -0.00636   0.00040   0.00000  -0.13425   0.00056
  17        2PZ         0.00000   0.00000  -0.07939   0.00000   0.00000
  18        3S          0.13499  -0.00160   0.00000   0.11342   0.00061
  19        3PX        -0.00457  -0.43958   0.00000   0.00013   0.31936
  20        3PY         0.07799  -0.00006   0.00000  -0.12443   0.00114
  21        3PZ         0.00000   0.00000  -0.34156   0.00000   0.00000
  22        4S          0.35131  -0.00466   0.00000   1.45929  -0.00919
  23        4PX         0.00507   0.65401   0.00000   0.00212  -0.32784
  24        4PY         0.12938  -0.00230   0.00000   0.59249  -0.01509
  25        4PZ         0.00000   0.00000   0.83776   0.00000   0.00000
  26        5S          9.77153  -0.09100   0.00000  -5.41153   0.06654
  27        5PX        -0.00705  -0.93412   0.00000  -0.00509   1.27917
  28        5PY         3.23322  -0.02103   0.00000  -7.09685   0.03638
  29        5PZ         0.00000   0.00000  -0.99500   0.00000   0.00000
  30        6D 0       -0.01843   0.00020   0.00000  -0.00939  -0.00003
  31        6D+1        0.00000   0.00000  -0.00001   0.00000   0.00000
  32        6D-1        0.00000   0.00000   0.01164   0.00000   0.00000
  33        6D+2        0.00372  -0.00002   0.00000  -0.01396   0.00015
  34        6D-2       -0.00025  -0.01118   0.00000   0.00019   0.03967
  35        7D 0       -0.43690   0.00415   0.00000  -0.05099  -0.00144
  36        7D+1        0.00000   0.00000  -0.00071   0.00000   0.00000
  37        7D-1        0.00000   0.00000  -0.29469   0.00000   0.00000
  38        7D+2        0.22149  -0.00249   0.00000  -0.33789   0.00185
  39        7D-2       -0.00159  -0.19940   0.00000  -0.00071  -0.27347
  40 4   N  1S          0.00411  -0.00004   0.00000   0.00567  -0.00006
  41        2S          0.00627  -0.00007   0.00000   0.01322  -0.00013
  42        2PX        -0.00125  -0.17981   0.00000  -0.00114  -0.15948
  43        2PY        -0.02429   0.00080   0.00000  -0.18004   0.00101
  44        2PZ         0.00000   0.00000  -0.21769   0.00000   0.00000
  45        3S          0.01926  -0.00023   0.00000  -0.11378   0.00133
  46        3PX        -0.00514  -0.64487   0.00000  -0.00280  -0.38541
  47        3PY        -0.09552   0.00268   0.00000  -0.36863   0.00153
  48        3PZ         0.00000   0.00000  -0.69261   0.00000   0.00000
  49        4S         -0.54089   0.00638   0.00000  -1.29377   0.01438
  50        4PX         0.01175   1.34972   0.00000   0.00726   0.93899
  51        4PY         0.68504  -0.01089   0.00000   1.57405  -0.01077
  52        4PZ         0.00000   0.00000   1.38191   0.00000   0.00000
  53        5S         -9.26925   0.07631   0.00000  11.92515  -0.08179
  54        5PX         0.00188  -0.39411   0.00000  -0.00882  -0.97929
  55        5PY         2.02319  -0.01610   0.00000  -2.52425   0.01945
  56        5PZ         0.00000   0.00000  -0.47014   0.00000   0.00000
  57        6D 0       -0.00899   0.00010   0.00000  -0.00158  -0.00005
  58        6D+1        0.00000   0.00000   0.00002   0.00000   0.00000
  59        6D-1        0.00000   0.00000   0.01699   0.00000   0.00000
  60        6D+2       -0.00483   0.00013   0.00000  -0.00632   0.00000
  61        6D-2        0.00022   0.02144   0.00000   0.00005   0.00315
  62        7D 0       -0.27590   0.00251   0.00000   0.15360  -0.00225
  63        7D+1        0.00000   0.00000  -0.00031   0.00000   0.00000
  64        7D-1        0.00000   0.00000  -0.05124   0.00000   0.00000
  65        7D+2        0.19593  -0.00183   0.00000   0.15029  -0.00124
  66        7D-2        0.00123   0.09952   0.00000  -0.00161  -0.31924
  67 5   C  1S         -0.00012   0.00008   0.00000  -0.06308   0.00025
  68        2S          0.00008   0.00016   0.00000  -0.12752   0.00053
  69        2PX        -0.00031  -0.01079   0.00000   0.00024   0.07103
  70        2PY         0.01716  -0.00002   0.00000  -0.08887   0.00021
  71        2PZ         0.00000   0.00000  -0.04023   0.00000   0.00000
  72        3S          0.22057  -0.00382   0.00000   1.23402  -0.00465
  73        3PX        -0.00134  -0.12610   0.00000   0.00106   0.19133
  74        3PY         0.24523  -0.00215   0.00000  -0.28510   0.00079
  75        3PZ         0.00000   0.00000  -0.13519   0.00000   0.00000
  76        4S         -1.98778   0.02470   0.00000  -4.85705   0.00135
  77        4PX         0.00573   0.00789   0.00000  -0.00292  -0.74425
  78        4PY         0.35184  -0.00264   0.00000   0.23693  -0.00446
  79        4PZ         0.00000   0.00000   0.50076   0.00000   0.00000
  80        5S         -0.36881   0.00813   0.00000  -3.54361   0.00969
  81        5PX         0.00465   0.53274   0.00000  -0.00002  -0.23190
  82        5PY        -0.39243   0.00479   0.00000  -0.93310   0.00129
  83        5PZ         0.00000   0.00000   0.87910   0.00000   0.00000
  84        6D 0       -0.00240   0.00006   0.00000  -0.01136   0.00005
  85        6D+1        0.00000   0.00000  -0.00003   0.00000   0.00000
  86        6D-1        0.00000   0.00000  -0.00566   0.00000   0.00000
  87        6D+2       -0.00621   0.00012   0.00000  -0.01398   0.00001
  88        6D-2        0.00008   0.00337   0.00000  -0.00002  -0.01352
  89        7D 0       -0.84177   0.00788   0.00000  -0.35767  -0.00058
  90        7D+1        0.00000   0.00000  -0.00127   0.00000   0.00000
  91        7D-1        0.00000   0.00000  -0.58621   0.00000   0.00000
  92        7D+2        0.30522  -0.00191   0.00000  -0.30374   0.00052
  93        7D-2        0.00387   0.14814   0.00000  -0.00385  -0.97104
                          41        42        43        44        45
                           V         V         V         V         V
     Eigenvalues --     0.85699   0.87132   0.88547   0.89787   0.96224
   1 1   H  1S          0.00006   0.00013  -0.00005  -0.01266   0.00614
   2        2S          0.00937  -0.43546   0.00187   0.35880   1.05001
   3        3S         -0.00537   0.81119  -0.00100  -0.40460  -0.07554
   4        4PX        -0.07470  -0.00049   0.00287   0.00016  -0.00007
   5        4PY         0.00038   0.00188   0.00016   0.06627   0.01697
   6        4PZ        -0.00067   0.04147  -0.00014  -0.05461  -0.04735
   7 2   H  1S         -0.00006  -0.00013  -0.00005  -0.01266   0.00614
   8        2S         -0.00937   0.43546   0.00187   0.35880   1.05001
   9        3S          0.00537  -0.81119  -0.00100  -0.40460  -0.07554
  10        4PX         0.07470   0.00049   0.00287   0.00016  -0.00007
  11        4PY        -0.00038  -0.00188   0.00016   0.06627   0.01697
  12        4PZ        -0.00067   0.04147   0.00014   0.05461   0.04735
  13 3   N  1S          0.00000   0.00000  -0.00015  -0.04067  -0.05026
  14        2S          0.00000   0.00000  -0.00028  -0.07361  -0.10112
  15        2PX         0.00000   0.00000  -0.18421   0.00059   0.00010
  16        2PY         0.00000   0.00000   0.00078   0.19815   0.00033
  17        2PZ         0.00068  -0.18876   0.00000   0.00000   0.00000
  18        3S          0.00000   0.00000   0.00145   0.33989   0.95586
  19        3PX         0.00000   0.00000  -0.68346   0.00183   0.00026
  20        3PY         0.00000   0.00000   0.00211   0.35541   0.00206
  21        3PZ         0.00211  -0.66220   0.00000   0.00000   0.00000
  22        4S          0.00000   0.00000  -0.00758  -2.69115  -6.57160
  23        4PX         0.00000   0.00000   2.57214  -0.01618  -0.00213
  24        4PY         0.00000   0.00000  -0.02868  -7.98853  -0.21258
  25        4PZ        -0.01223   2.59130   0.00000   0.00000   0.00000
  26        5S          0.00000   0.00000   0.00474 -10.54907   9.78461
  27        5PX         0.00000   0.00000  -1.81075  -0.00906   0.00500
  28        5PY         0.00000   0.00000  -0.01427 -10.81561   3.51842
  29        5PZ         0.00809  -1.64885   0.00000   0.00000   0.00000
  30        6D 0        0.00000   0.00000   0.00000   0.00105  -0.01549
  31        6D+1        0.01055   0.00007   0.00000   0.00000   0.00000
  32        6D-1       -0.00023   0.01680   0.00000   0.00000   0.00000
  33        6D+2        0.00000   0.00000   0.00005   0.00636  -0.02818
  34        6D-2        0.00000   0.00000   0.02071  -0.00012   0.00008
  35        7D 0        0.00000   0.00000  -0.00034  -0.01571   0.40964
  36        7D+1        0.56853   0.00362   0.00000   0.00000   0.00000
  37        7D-1       -0.00053   0.11345   0.00000   0.00000   0.00000
  38        7D+2        0.00000   0.00000   0.00093   0.02700   0.31201
  39        7D-2        0.00000   0.00000   0.13351  -0.00077  -0.00052
  40 4   N  1S          0.00000   0.00000  -0.00007  -0.01863  -0.02466
  41        2S          0.00000   0.00000  -0.00014  -0.03652  -0.05649
  42        2PX         0.00000   0.00000   0.03998   0.00042   0.00004
  43        2PY         0.00000   0.00000   0.00048   0.20237   0.03733
  44        2PZ        -0.00045   0.08574   0.00000   0.00000   0.00000
  45        3S          0.00000   0.00000   0.00100   0.20626   0.51799
  46        3PX         0.00000   0.00000   0.18916   0.00067  -0.00044
  47        3PY         0.00000   0.00000   0.00030   0.31213  -0.23408
  48        3PZ        -0.00229   0.34189   0.00000   0.00000   0.00000
  49        4S          0.00000   0.00000   0.02032   6.76606   1.73211
  50        4PX         0.00000   0.00000  -1.32121  -0.00449  -0.00156
  51        4PY         0.00000   0.00000  -0.00991  -4.24792  -1.24934
  52        4PZ         0.00882  -1.62567   0.00000   0.00000   0.00000
  53        5S          0.00000   0.00000   0.02373  20.99763  -8.38492
  54        5PX         0.00000   0.00000   1.09819  -0.00864   0.00319
  55        5PY         0.00000   0.00000  -0.00454  -3.83552   1.90649
  56        5PZ        -0.00706   1.25816   0.00000   0.00000   0.00000
  57        6D 0        0.00000   0.00000  -0.00002  -0.00202  -0.00304
  58        6D+1        0.00925   0.00003   0.00000   0.00000   0.00000
  59        6D-1        0.00014  -0.02335   0.00000   0.00000   0.00000
  60        6D+2        0.00000   0.00000  -0.00008  -0.00267  -0.01940
  61        6D-2        0.00000   0.00000  -0.02118   0.00006   0.00006
  62        7D 0        0.00000   0.00000  -0.00139  -0.37035   0.29765
  63        7D+1        0.61425   0.00360   0.00000   0.00000   0.00000
  64        7D-1        0.00055  -0.08831   0.00000   0.00000   0.00000
  65        7D+2        0.00000   0.00000  -0.00136  -0.41607  -0.56911
  66        7D-2        0.00000   0.00000  -0.11790   0.00193   0.00166
  67 5   C  1S          0.00000   0.00000  -0.00010  -0.06188   0.02585
  68        2S          0.00000   0.00000  -0.00018  -0.12087   0.04372
  69        2PX         0.00000   0.00000   0.01383  -0.00011   0.00011
  70        2PY         0.00000   0.00000  -0.00007  -0.00022  -0.00835
  71        2PZ        -0.00048   0.03564   0.00000   0.00000   0.00000
  72        3S          0.00000   0.00000   0.00145   0.98081  -0.19635
  73        3PX         0.00000   0.00000  -0.01483  -0.00018   0.00105
  74        3PY         0.00000   0.00000  -0.00137  -0.50697   0.66255
  75        3PZ        -0.00359   0.24344   0.00000   0.00000   0.00000
  76        4S          0.00000   0.00000  -0.03059 -10.48108   1.80249
  77        4PX         0.00000   0.00000  -0.65269   0.00132   0.00359
  78        4PY         0.00000   0.00000  -0.00980  -3.03062   1.93910
  79        4PZ        -0.00120  -0.90503   0.00000   0.00000   0.00000
  80        5S          0.00000   0.00000  -0.01377  -5.07278  -0.74535
  81        5PX         0.00000   0.00000   0.62967  -0.00222  -0.00152
  82        5PY         0.00000   0.00000  -0.00461  -1.11924  -0.96007
  83        5PZ         0.00065   0.16404   0.00000   0.00000   0.00000
  84        6D 0        0.00000   0.00000   0.00002   0.01128  -0.02816
  85        6D+1       -0.00337  -0.00002   0.00000   0.00000   0.00000
  86        6D-1        0.00001  -0.00002   0.00000   0.00000   0.00000
  87        6D+2        0.00000   0.00000  -0.00001   0.00448  -0.03282
  88        6D-2        0.00000   0.00000  -0.00552   0.00003   0.00004
  89        7D 0        0.00000   0.00000   0.00022   0.17771  -1.11691
  90        7D+1       -0.33921  -0.00265   0.00000   0.00000   0.00000
  91        7D-1        0.01017  -0.73679   0.00000   0.00000   0.00000
  92        7D+2        0.00000   0.00000   0.00013   0.26669  -0.10007
  93        7D-2        0.00000   0.00000  -0.67835   0.00289  -0.00082
                          46        47        48        49        50
                           V         V         V         V         V
     Eigenvalues --     0.97480   0.99663   1.16238   1.25570   1.26471
   1 1   H  1S          0.00412  -0.01483   0.01040  -0.00010   0.03164
   2        2S         -2.73170  -1.03337   0.61202   0.00398  -0.05701
   3        3S         -0.11351   0.48185  -0.46731   0.00181  -0.08835
   4        4PX        -0.00067  -0.00009   0.00003   0.20908  -0.00010
   5        4PY        -0.13535  -0.02656  -0.04448  -0.00018   0.03648
   6        4PZ         0.11265   0.07516  -0.00790   0.00036   0.04136
   7 2   H  1S         -0.00412  -0.01483   0.01040   0.00010   0.03164
   8        2S          2.73170  -1.03337   0.61202  -0.00398  -0.05701
   9        3S          0.11351   0.48185  -0.46731  -0.00181  -0.08835
  10        4PX         0.00067  -0.00009   0.00003  -0.20908  -0.00010
  11        4PY         0.13535  -0.02656  -0.04448   0.00018   0.03648
  12        4PZ         0.11265  -0.07516   0.00790   0.00036  -0.04136
  13 3   N  1S          0.00000  -0.02583   0.06447   0.00000  -0.02345
  14        2S          0.00000  -0.05714   0.13321   0.00000  -0.04833
  15        2PX         0.00000  -0.00019  -0.00019   0.00000  -0.00017
  16        2PY         0.00000  -0.13043  -0.10956   0.00000  -0.09751
  17        2PZ         0.10038   0.00000   0.00000  -0.00003   0.00000
  18        3S          0.00000   0.69537  -1.54201   0.00000   0.46727
  19        3PX         0.00000  -0.00026   0.00042   0.00000  -0.00019
  20        3PY         0.00000  -0.04447   0.31075   0.00000  -0.09354
  21        3PZ         0.45964   0.00000   0.00000  -0.00015   0.00000
  22        4S          0.00000  -5.95319  12.54118   0.00000  -0.15373
  23        4PX         0.00000   0.00080   0.00015   0.00000  -0.01569
  24        4PY         0.00000   2.15594   0.32966   0.00000 -10.94285
  25        4PZ        -0.97263   0.00000   0.00000   0.00425   0.00000
  26        5S          0.00000   2.05758 -22.85814   0.00000  15.76051
  27        5PX         0.00000   0.00436  -0.01273   0.00000   0.00536
[...]
  16         V                 0.052708          0.231238
  17         V                 0.086793          0.807094
  18         V                 0.108941          0.351156
  19         V                 0.135344          0.414134
  20         V                 0.140308          0.636961
  21         V                 0.146239          0.405249
  22         V                 0.191021          0.841428
  23         V                 0.215171          0.468996
  24         V                 0.223696          0.490092
  25         V                 0.224857          0.452090
  26         V                 0.239668          0.883569
  27         V                 0.270057          1.487103
  28         V                 0.304458          0.929566
  29         V                 0.412193          1.558913
  30         V                 0.511047          1.401859
  31         V                 0.532144          1.407545
  32         V                 0.555712          1.504613
  33         V                 0.561308          1.102363
  34         V                 0.641757          1.628272
  35         V                 0.676788          1.562541
  36         V                 0.755302          1.380497
  37         V                 0.762509          1.813515
  38         V                 0.764107          1.883527
  39         V                 0.781518          2.202163
  40         V                 0.808707          1.801422
  41         V                 0.856992          1.523163
  42         V                 0.871316          1.877644
  43         V                 0.885469          1.796613
  44         V                 0.897872          2.758646
  45         V                 0.962242          1.962667
  46         V                 0.974796          1.702854
  47         V                 0.996628          2.723358
  48         V                 1.162383          2.986287
  49         V                 1.255697          1.913919
  50         V                 1.264713          2.671078
  51         V                 1.303450          2.227777
  52         V                 1.305806          2.689772
  53         V                 1.402574          2.313929
  54         V                 1.425675          2.183502
  55         V                 1.661711          2.320151
  56         V                 1.715880          2.661726
  57         V                 1.826140          2.937450
  58         V                 1.928241          2.549963
  59         V                 1.987195          3.747123
  60         V                 2.058840          3.223631
  61         V                 2.142315          3.755551
  62         V                 2.374451          3.671486
  63         V                 2.380628          3.590376
  64         V                 2.605309          4.533151
  65         V                 2.652488          4.078282
  66         V                 2.824858          6.314531
  67         V                 2.875386          4.712839
  68         V                 3.227081          4.913599
  69         V                 3.283152          6.282045
  70         V                 3.422573          5.896308
  71         V                 3.449423          6.372443
  72         V                 3.583426          5.986808
  73         V                 3.814918          8.382350
  74         V                 3.857220          8.722163
  75         V                 3.977541          6.875588
  76         V                 4.014192          8.763640
  77         V                 4.025302          8.825347
  78         V                 4.087386          6.313104
  79         V                 4.518644          8.336466
  80         V                 4.537897          8.854705
  81         V                 4.635002          7.113110
  82         V                 4.648639          7.143081
  83         V                 4.730871          7.214854
  84         V                 4.803708          7.285100
  85         V                 4.822957          7.366484
  86         V                 4.855797          7.314526
  87         V                 5.227885          9.332603
  88         V                 5.246948          7.871848
  89         V                 5.308651          7.936177
  90         V                 6.169938          9.379199
  91         V                24.246405         60.524122
  92         V                35.364569         89.032728
  93         V                36.120678         89.078209
 Total kinetic energy from orbitals= 1.481472910950D+02
  Exact polarizability:  19.878   0.028  49.731   0.000   0.000  18.278
 Approx polarizability:  24.818   0.062  95.598   0.000   0.000  24.249
 R6APFD:  NTU= -4 IXU= 1 FactS= 1.050
 Calling FoFJK, ICntrl=    100127 FMM=F ISym2X=1 I1Cent= 0 IOpClX= 0 NMat=1 NMatS=1 NMatT=0.
 Full mass-weighted force constant matrix:
 Low frequencies ---   -1.7970    0.0004    0.0006    0.0008    6.5171   33.0521
 Low frequencies ---  428.5692  436.2961  581.3765
 Diagonal vibrational polarizability:
       20.1299383       3.0545831       0.1032972
 Harmonic frequencies (cm**-1), IR intensities (KM/Mole), Raman scattering
 activities (A**4/AMU), depolarization ratios for plane and unpolarized
 incident light, reduced masses (AMU), force constants (mDyne/A),
 and normal coordinates:
                      1                      2                      3
                     A"                     A'                     A'
 Frequencies --    428.5691               436.2957               581.3765
 Red. masses --      3.4415                 1.4689                 4.5719
 Frc consts  --      0.3724                 0.1647                 0.9105
 IR Inten    --      0.3816               138.4837                 6.9380
  Atom  AN      X      Y      Z        X      Y      Z        X      Y      Z
     1   1     0.00  -0.52  -0.37     0.69   0.00   0.00    -0.60   0.00   0.00
     2   1     0.00   0.52  -0.37     0.69   0.00   0.00    -0.60   0.00   0.00
     3   7     0.00   0.00   0.36     0.08   0.00   0.00     0.44   0.00   0.00
     4   7     0.00   0.00  -0.23    -0.02   0.00   0.00    -0.25   0.00   0.00
     5   6     0.00   0.00  -0.09    -0.18   0.00   0.00    -0.12   0.00   0.00
                      4                      5                      6
                     A"                     A'                     A'
 Frequencies --   1110.6416              1224.4729              1439.1441
 Red. masses --      1.4683                 3.1505                 1.3490
 Frc consts  --      1.0671                 2.7831                 1.6461
 IR Inten    --      1.6231                 3.3951                37.8768
  Atom  AN      X      Y      Z        X      Y      Z        X      Y      Z
     1   1     0.00  -0.66  -0.21     0.00  -0.62  -0.14     0.00   0.57   0.40
     2   1     0.00   0.66  -0.21     0.00  -0.62   0.14     0.00   0.57  -0.40
     3   7     0.00   0.00  -0.12     0.00   0.11   0.00     0.00   0.02   0.00
     4   7     0.00   0.00   0.02     0.00   0.26   0.00     0.00   0.04   0.00
     5   6     0.00   0.00   0.15     0.00  -0.32   0.00     0.00  -0.17   0.00
                      7                      8                      9
                     A'                     A'                     A"
 Frequencies --   2215.1040              3201.8211              3327.6590
 Red. masses --     13.0830                 1.0455                 1.1256
 Frc consts  --     37.8221                 6.3147                 7.3437
 IR Inten    --    448.0659                16.5730                 4.9285
  Atom  AN      X      Y      Z        X      Y      Z        X      Y      Z
     1   1     0.00  -0.18  -0.03     0.00  -0.33   0.63     0.00  -0.33   0.62
     2   1     0.00  -0.18   0.03     0.00  -0.33  -0.63     0.00   0.33   0.62
     3   7     0.00   0.75   0.00     0.00   0.00   0.00     0.00   0.00   0.00
     4   7     0.00  -0.58   0.00     0.00   0.00   0.00     0.00   0.00   0.00
     5   6     0.00  -0.18   0.00     0.00   0.06   0.00     0.00   0.00  -0.10

 -------------------
 - Thermochemistry -
 -------------------
 Temperature   298.150 Kelvin.  Pressure   1.00000 Atm.
 Atom     1 has atomic number  1 and mass   1.00783
 Atom     2 has atomic number  1 and mass   1.00783
 Atom     3 has atomic number  7 and mass  14.00307
 Atom     4 has atomic number  7 and mass  14.00307
 Atom     5 has atomic number  6 and mass  12.00000
 Molecular mass:    42.02180 amu.
 Principal axes and moments of inertia in atomic units:
                           1         2         3
     Eigenvalues --     6.54863 157.32345 163.87205
           X            0.00119   0.00000   1.00000
           Y            1.00000   0.00000  -0.00119
           Z            0.00000   1.00000   0.00000
 This molecule is an asymmetric top.
 Rotational symmetry number  1.
 Rotational temperatures (Kelvin)     13.22625     0.55055     0.52855
 Rotational constants (GHZ):         275.59074    11.47153    11.01311
 Zero-point vibrational energy      83529.8 (Joules/Mol)
                                   19.96409 (Kcal/Mol)
 Warning -- explicit consideration of   3 degrees of freedom as
           vibrations may cause significant error
 Vibrational temperatures:    616.61   627.73   836.47  1597.96  1761.74
          (Kelvin)           2070.60  3187.04  4606.70  4787.75
 
 Zero-point correction=                           0.031815 (Hartree/Particle)
 Thermal correction to Energy=                    0.035422
 Thermal correction to Enthalpy=                  0.036366
 Thermal correction to Gibbs Free Energy=         0.008241
 Sum of electronic and zero-point Energies=           -148.626884
 Sum of electronic and thermal Energies=              -148.623277
 Sum of electronic and thermal Enthalpies=            -148.622333
 Sum of electronic and thermal Free Energies=         -148.650457
 
                     E (Thermal)             CV                S
                      KCal/Mol        Cal/Mol-Kelvin    Cal/Mol-Kelvin
 Total                   22.228             10.391             59.194
 Electronic               0.000              0.000              0.000
 Translational            0.889              2.981             37.134
 Rotational               0.889              2.981             19.763
 Vibrational             20.450              4.429              2.297
 Vibration     1          0.790              1.408              0.863
 Vibration     2          0.797              1.391              0.838
 Vibration     3          0.938              1.072              0.483
                       Q            Log10(Q)             Ln(Q)
 Total Bot       0.161929D-03         -3.790674         -8.728350
 Total V=0       0.696767D+11         10.843088         24.967132
 Vib (Bot)       0.325153D-14        -14.487912        -33.359651
 Vib (Bot)    1  0.407013D+00         -0.390392         -0.898911
 Vib (Bot)    2  0.397390D+00         -0.400783         -0.922836
 Vib (Bot)    3  0.261744D+00         -0.582123         -1.340387
 Vib (V=0)       0.139910D+01          0.145850          0.335832
 Vib (V=0)    1  0.114472D+01          0.058698          0.135157
 Vib (V=0)    2  0.113869D+01          0.056404          0.129874
 Vib (V=0)    3  0.106437D+01          0.027091          0.062380
 Electronic      0.100000D+01          0.000000          0.000000
 Translational   0.107070D+08          7.029667         16.186407
 Rotational      0.465126D+04          3.667571          8.444894
 ***** Axes restored to original set *****
 -------------------------------------------------------------------
 Center     Atomic                   Forces (Hartrees/Bohr)
 Number     Number              X              Y              Z
 -------------------------------------------------------------------
      1        1           0.000011776   -0.000086339   -0.000075885
      2        1           0.000011776   -0.000086339    0.000075885
      3        7           0.000058227    0.000086276    0.000000000
      4        7          -0.000026043   -0.000080084    0.000000000
      5        6          -0.000055736    0.000166486    0.000000000
 -------------------------------------------------------------------
 Cartesian Forces:  Max     0.000166486 RMS     0.000070924

 GradGradGradGradGradGradGradGradGradGradGradGradGradGradGradGradGradGrad
 Berny optimization.
 Search for a local minimum.
 Step number   1 out of a maximum of    2
 All quantities printed in internal units (Hartrees-Bohrs-Radians)
 Second derivative matrix not updated -- analytic derivatives used.
 The second derivative matrix:
                          X1        Y1        Z1        X2        Y2
           X1           0.00344
           Y1           0.00034   0.12433
           Z1          -0.00052  -0.13556   0.30344
           X2           0.00339   0.00003   0.00005   0.00344
           Y2           0.00003   0.01045   0.01128   0.00034   0.12433
           Z2          -0.00005  -0.01128  -0.01055   0.00052   0.13556
           X3          -0.00672  -0.00009   0.00000  -0.00672  -0.00009
           Y3           0.00007  -0.03707   0.00196   0.00007  -0.03707
           Z3           0.00001   0.03096   0.00834  -0.00001  -0.03096
           X4           0.00501   0.00001   0.00000   0.00501   0.00001
           Y4          -0.00004   0.00682  -0.00520  -0.00004   0.00682
           Z4           0.00000  -0.00208  -0.00154   0.00000   0.00208
           X5          -0.00512  -0.00030   0.00047  -0.00512  -0.00030
           Y5          -0.00040  -0.10452   0.12752  -0.00040  -0.10452
           Z5           0.00056   0.11797  -0.29970  -0.00056  -0.11797
                          Z2        X3        Y3        Z3        X4
           Z2           0.30344
           X3           0.00000   0.11434
           Y3          -0.00196   0.00213   1.63080
           Z3           0.00834   0.00000   0.00000   0.14548
           X4           0.00000  -0.06372  -0.00158   0.00000   0.03604
           Y4           0.00520  -0.00153  -1.10506   0.00000   0.00162
           Z4          -0.00154   0.00000   0.00000  -0.04965   0.00000
           X5          -0.00047  -0.03719  -0.00068   0.00000   0.01765
           Y5          -0.12752  -0.00044  -0.45160   0.00000  -0.00006
           Z5          -0.29970   0.00000   0.00000  -0.11252   0.00000
                          Y4        Z4        X5        Y5        Z5
           Y4           1.18204
           Z4           0.00000   0.02419
           X5          -0.00001   0.00000   0.02979
           Y5          -0.09062   0.00000   0.00129   0.75127
           Z5           0.00000   0.02854   0.00000   0.00000   0.68337
 ITU=  0
     Eigenvalues ---    0.01955   0.03011   0.09165   0.16240   0.20395
     Eigenvalues ---    0.34327   0.90215   0.96735   2.58224
 Angle between quadratic step and forces=  50.85 degrees.
 ClnCor:  largest displacement from symmetrization is 3.02D-12 for atom     2.
 Linear search not attempted -- first point.
 ClnCor:  largest displacement from symmetrization is 1.33D-15 for atom     1.
 TrRot= -0.000128  0.000251  0.000000 -0.000055  0.000000 -0.000055
 Variable       Old X    -DE/DX   Delta X   Delta X   Delta X     New X
                                 (Linear)    (Quad)   (Total)
    X1       -0.00543   0.00001   0.00000   0.00108   0.00061  -0.00481
    Y1       -3.09238  -0.00009   0.00000  -0.00103  -0.00078  -3.09316
    Z1        1.80247  -0.00008   0.00000  -0.00080  -0.00080   1.80167
    X2       -0.00543   0.00001   0.00000   0.00108   0.00061  -0.00481
    Y2       -3.09238  -0.00009   0.00000  -0.00103  -0.00078  -3.09316
    Z2       -1.80247   0.00008   0.00000   0.00080   0.00080  -1.80167
    X3        0.00000   0.00006   0.00000   0.00026   0.00017   0.00017
    Y3        0.29210   0.00009   0.00000   0.00024   0.00049   0.29259
    Z3        0.00000   0.00000   0.00000   0.00000   0.00000   0.00000
    X4        0.00314  -0.00003   0.00000   0.00003   0.00017   0.00331
    Y4        2.42885  -0.00008   0.00000   0.00019   0.00044   2.42930
    Z4        0.00000   0.00000   0.00000   0.00000   0.00000   0.00000
    X5       -0.00186  -0.00006   0.00000  -0.00120  -0.00156  -0.00342
    Y5       -2.14365   0.00017   0.00000   0.00038   0.00063  -2.14302
    Z5        0.00000   0.00000   0.00000   0.00000   0.00000   0.00000
         Item               Value     Threshold  Converged?
 Maximum Force            0.000166     0.000450     YES
 RMS     Force            0.000071     0.000300     YES
 Maximum Displacement     0.001561     0.001800     YES
 RMS     Displacement     0.000662     0.001200     YES
 Predicted change in Energy=-2.372342D-07
 Optimization completed.
    -- Stationary point found.
 GradGradGradGradGradGradGradGradGradGradGradGradGradGradGradGradGradGrad

 1|1|UNPC-DESKTOP-KC5UJLK|Freq|RAPFD|6-311+G(2d,p)|C1H2N2|23122|07-Feb-
 2022|0||# freq apfd/6-311+g(2d,p) pop=full geom=connectivity int=ultra
 fine||Energy Calculation(GC)||0,1|H,-0.002872,-1.636416,0.953824|H,-0.
 002872,-1.636416,-0.953824|N,0.,0.154572,0.|N,0.001663,1.285294,0.|C,-
 0.000983,-1.134372,0.||Version=IA32W-G09RevD.01|State=1-A'|HF=-148.658
 6987|RMSD=7.459e-009|RMSF=7.092e-005|ZeroPoint=0.0318148|Thermal=0.035
 4218|Dipole=-0.0020729,-0.6481908,0.|DipoleDeriv=0.2544167,-0.0008692,
 0.0002721,-0.0002788,0.0854211,-0.0434426,0.0001255,-0.0237433,0.04378
 98,0.2544167,-0.0008692,-0.0002721,-0.0002788,0.0854211,0.0434426,-0.0
 001255,0.0237432,0.0437898,0.0937956,0.0026146,0.,0.0010716,2.0768972,
 0.,0.,0.,-0.0126623,-0.0861711,-0.0020021,0.,-0.0004759,-1.2912934,0.,
 0.,0.,-0.151092,-0.516458,0.0011258,0.,-0.000038,-0.9564461,0.,0.,0.,0
 .0761747|Polar=19.8778775,0.0277198,49.7311643,0.,0.,18.2777091|PG=CS 
 [SG(C1N2),X(H2)]|NImag=0||0.00343548,0.00034408,0.12433050,-0.00051836
 ,-0.13556114,0.30344344,0.00339268,0.00002703,0.00005085,0.00343548,0.
 00002703,0.01044541,0.01128410,0.00034408,0.12433050,-0.00005085,-0.01
 128410,-0.01054928,0.00051836,0.13556114,0.30344344,-0.00671814,-0.000
 08531,-0.00000180,-0.00671814,-0.00008531,0.00000180,0.11433680,0.0000
 6730,-0.03706847,0.00196088,0.00006730,-0.03706847,-0.00196088,0.00213
 373,1.63079539,0.00000572,0.03095883,0.00834333,-0.00000572,-0.0309588
 3,0.00834333,0.,0.,0.14548413,0.00501443,0.00001217,-0.00000391,0.0050
 1443,0.00001217,0.00000391,-0.06371506,-0.00158378,0.,0.03604045,-0.00
 004091,0.00681747,-0.00520192,-0.00004091,0.00681747,0.00520193,-0.001
 52809,-1.10505711,0.,0.00162412,1.18203750,0.00000378,-0.00208309,-0.0
 0153972,-0.00000378,0.00208309,-0.00153972,0.,0.,-0.04964893,0.,0.,0.0
 2418503,-0.00512445,-0.00029797,0.00047322,-0.00512445,-0.00029797,-0.
 00047322,-0.03718545,-0.00068455,0.,0.01764575,-0.00001420,0.,0.029788
 59,-0.00039750,-0.10452491,0.12751808,-0.00039750,-0.10452491,-0.12751
 808,-0.00043502,-0.45160133,0.,-0.00006468,-0.09061533,0.,0.00129470,0
 .75126648,0.00055969,0.11796951,-0.29969776,-0.00055969,-0.11796951,-0
 .29969776,0.,0.,-0.11252186,0.,0.,0.02854335,0.,0.,0.68337403||-0.0000
 1178,0.00008634,0.00007589,-0.00001178,0.00008634,-0.00007589,-0.00005
 823,-0.00008628,0.,0.00002604,0.00008008,0.,0.00005574,-0.00016649,0.|
 ||@


     SCHOPENHAUER'S LAW OF ENTROPY
 IF YOU PUT A SPOONFUL OF WINE IN A BARREL FULL
 OF SEWAGE, YOU GET SEWAGE.
 IF YOU PUT A SPOONFUL OF SEWAGE IN A BARREL FULL
 OF WINE, YOU GET SEWAGE.
 Job cpu time:       0 days  0 hours  0 minutes 58.0 seconds.
 File lengths (MBytes):  RWF=      7 Int=      0 D2E=      0 Chk=      1 Scr=      1
 Normal termination of Gaussian 09 at Mon Feb 07 12:34:33 2022.
