 Entering Link 1 = C:\G09W\l1.exe PID=      5916.
  
 Copyright (c) 1988,1990,1992,1993,1995,1998,2003,2009,2013,
            Gaussian, Inc.  All Rights Reserved.
  
 This is part of the Gaussian(R) 09 program.  It is based on
 the Gaussian(R) 03 system (copyright 2003, Gaussian, Inc.),
 the Gaussian(R) 98 system (copyright 1998, Gaussian, Inc.),
 the Gaussian(R) 94 system (copyright 1995, Gaussian, Inc.),
 the Gaussian 92(TM) system (copyright 1992, Gaussian, Inc.),
 the Gaussian 90(TM) system (copyright 1990, Gaussian, Inc.),
 the Gaussian 88(TM) system (copyright 1988, Gaussian, Inc.),
 the Gaussian 86(TM) system (copyright 1986, Carnegie Mellon
 University), and the Gaussian 82(TM) system (copyright 1983,
 Carnegie Mellon University). Gaussian is a federally registered
 trademark of Gaussian, Inc.
  
 This software contains proprietary and confidential information,
 including trade secrets, belonging to Gaussian, Inc.
  
 This software is provided under written license and may be
 used, copied, transmitted, or stored only in accord with that
 written license.
  
 The following legend is applicable only to US Government
 contracts under FAR:
  
                    RESTRICTED RIGHTS LEGEND
  
 Use, reproduction and disclosure by the US Government is
 subject to restrictions as set forth in subparagraphs (a)
 and (c) of the Commercial Computer Software - Restricted
 Rights clause in FAR 52.227-19.
  
 Gaussian, Inc.
 340 Quinnipiac St., Bldg. 40, Wallingford CT 06492
  
  
 ---------------------------------------------------------------
 Warning -- This program may not be used in any manner that
 competes with the business of Gaussian, Inc. or will provide
 assistance to any competitor of Gaussian, Inc.  The licensee
 of this program is prohibited from giving any competitor of
 Gaussian, Inc. access to this program.  By using this program,
 the user acknowledges that Gaussian, Inc. is engaged in the
 business of creating and licensing software in the field of
 computational chemistry and represents and warrants to the
 licensee that it is not a competitor of Gaussian, Inc. and that
 it will not use this program in any manner prohibited above.
 ---------------------------------------------------------------
  

 Cite this work as:
 Gaussian 09, Revision D.01,
 M. J. Frisch, G. W. Trucks, H. B. Schlegel, G. E. Scuseria, 
 M. A. Robb, J. R. Cheeseman, G. Scalmani, V. Barone, B. Mennucci, 
 G. A. Petersson, H. Nakatsuji, M. Caricato, X. Li, H. P. Hratchian, 
 A. F. Izmaylov, J. Bloino, G. Zheng, J. L. Sonnenberg, M. Hada, 
 M. Ehara, K. Toyota, R. Fukuda, J. Hasegawa, M. Ishida, T. Nakajima, 
 Y. Honda, O. Kitao, H. Nakai, T. Vreven, J. A. Montgomery, Jr., 
 J. E. Peralta, F. Ogliaro, M. Bearpark, J. J. Heyd, E. Brothers, 
 K. N. Kudin, V. N. Staroverov, T. Keith, R. Kobayashi, J. Normand, 
 K. Raghavachari, A. Rendell, J. C. Burant, S. S. Iyengar, J. Tomasi, 
 M. Cossi, N. Rega, J. M. Millam, M. Klene, J. E. Knox, J. B. Cross, 
 V. Bakken, C. Adamo, J. Jaramillo, R. Gomperts, R. E. Stratmann, 
 O. Yazyev, A. J. Austin, R. Cammi, C. Pomelli, J. W. Ochterski, 
 R. L. Martin, K. Morokuma, V. G. Zakrzewski, G. A. Voth, 
 P. Salvador, J. J. Dannenberg, S. Dapprich, A. D. Daniels, 
 O. Farkas, J. B. Foresman, J. V. Ortiz, J. Cioslowski, 
 and D. J. Fox, Gaussian, Inc., Wallingford CT, 2013.
 
 ******************************************
 Gaussian 09:  IA32W-G09RevD.01 24-Apr-2013
                05-Feb-2022 
 ******************************************
 %chk=D:\mindmap\gaussian\calculate\ch3n2_120degree\energy.chk
 %nprocshared=4
 Will use up to    4 processors via shared memory.
 %mem=1GB
 -------------------------------------------------------------
 # apfd/6-311+g(2d,p) geom=connectivity pop=full int=ultrafine
 -------------------------------------------------------------
 1/38=1,57=2/1;
 2/12=2,17=6,18=5,40=1/2;
 3/5=4,6=6,7=112,11=2,16=1,25=1,30=1,74=-44,75=-5/1,2,3;
 4//1;
 5/5=2,38=5/2;
 6/7=3,28=1/1;
 99/5=1,9=1/99;
 ----------------------
 Energy Calculation(GC)
 ----------------------
 Symbolic Z-matrix:
 Charge =  0 Multiplicity = 1
 C                    -0.0025   -1.06108  -0.13168 
 H                     0.91566  -1.5304   -0.41739 
 H                    -0.93543  -1.53617  -0.35264 
 N                     0.01149   0.07871   0.47994 
 N                    -0.00652   1.26887  -0.25706 
 
                          Input orientation:                          
 ---------------------------------------------------------------------
 Center     Atomic      Atomic             Coordinates (Angstroms)
 Number     Number       Type             X           Y           Z
 ---------------------------------------------------------------------
      1          6           0       -0.002501   -1.061083   -0.131684
      2          1           0        0.915659   -1.530399   -0.417387
      3          1           0       -0.935434   -1.536175   -0.352644
      4          7           0        0.011489    0.078707    0.479940
      5          7           0       -0.006521    1.268875   -0.257064
 ---------------------------------------------------------------------
                    Distance matrix (angstroms):
                    1          2          3          4          5
     1  C    0.000000
     2  H    1.070000   0.000000
     3  H    1.070000   1.852234   0.000000
     4  N    1.293600   2.052301   2.048829   0.000000
     5  N    2.333333   2.951618   2.956403   1.400000   0.000000
 Stoichiometry    CH2N2
 Framework group  C1[X(CH2N2)]
 Deg. of freedom     9
 Full point group                 C1      NOp   1
 Largest Abelian subgroup         C1      NOp   1
 Largest concise Abelian subgroup C1      NOp   1
                         Standard orientation:                         
 ---------------------------------------------------------------------
 Center     Atomic      Atomic             Coordinates (Angstroms)
 Number     Number       Type             X           Y           Z
 ---------------------------------------------------------------------
      1          6           0        1.061083   -0.131684    0.002501
      2          1           0        1.530399   -0.417386   -0.915659
      3          1           0        1.536175   -0.352644    0.935434
      4          7           0       -0.078707    0.479940   -0.011489
      5          7           0       -1.268875   -0.257064    0.006521
 ---------------------------------------------------------------------
 Rotational constants (GHZ):     79.7947356     11.9105456     11.1543554
 Standard basis: 6-311+G(2d,p) (5D, 7F)
 There are    99 symmetry adapted cartesian basis functions of A   symmetry.
 There are    93 symmetry adapted basis functions of A   symmetry.
    93 basis functions,   142 primitive gaussians,    99 cartesian basis functions
    11 alpha electrons       11 beta electrons
       nuclear repulsion energy        57.5687091449 Hartrees.
 NAtoms=    5 NActive=    5 NUniq=    5 SFac= 1.00D+00 NAtFMM=   60 NAOKFM=F Big=F
 Integral buffers will be    262144 words long.
 Raffenetti 2 integral format.
 Two-electron integral symmetry is turned on.
 R6APFD:  NTU= -4 IXU= 1 FactS= 1.050
 Nuclear repulsion after empirical dispersion term =       57.5684173356 Hartrees.
 One-electron integrals computed using PRISM.
 NBasis=    93 RedAO= T EigKep=  4.62D-04  NBF=    93
 NBsUse=    93 1.00D-06 EigRej= -1.00D+00 NBFU=    93
 ExpMin= 4.38D-02 ExpMax= 6.29D+03 ExpMxC= 9.49D+02 IAcc=3 IRadAn=         5 AccDes= 0.00D+00
 Harris functional with IExCor= 3731 and IRadAn=       5 diagonalized for initial guess.
 HarFok:  IExCor= 3731 AccDes= 0.00D+00 IRadAn=         5 IDoV= 1 UseB2=F ITyADJ=14
 ICtDFT=  3500011 ScaDFX=  1.000000  1.000000  1.000000  1.000000
 FoFCou: FMM=F IPFlag=           0 FMFlag=      100000 FMFlg1=           0
         NFxFlg=           0 DoJE=T BraDBF=F KetDBF=T FulRan=T
         wScrn=  0.000000 ICntrl=     500 IOpCl=  0 I1Cent=   200000004 NGrid=           0
         NMat0=    1 NMatS0=      1 NMatT0=    0 NMatD0=    1 NMtDS0=    0 NMtDT0=    0
 Petite list used in FoFCou.
 Keep R1 ints in memory in canonical form, NReq=10520328.
 Requested convergence on RMS density matrix=1.00D-08 within 128 cycles.
 Requested convergence on MAX density matrix=1.00D-06.
 Requested convergence on             energy=1.00D-06.
 No special actions if energy rises.
 SCF Done:  E(RAPFD) =  -148.508550242     A.U. after   16 cycles
            NFock= 16  Conv=0.18D-08     -V/T= 2.0051

 **********************************************************************

            Population analysis using the SCF density.

 **********************************************************************

 Orbital symmetries:
       Occupied  (A) (A) (A) (A) (A) (A) (A) (A) (A) (A) (A)
       Virtual   (A) (A) (A) (A) (A) (A) (A) (A) (A) (A) (A) (A)
                 (A) (A) (A) (A) (A) (A) (A) (A) (A) (A) (A) (A)
                 (A) (A) (A) (A) (A) (A) (A) (A) (A) (A) (A) (A)
                 (A) (A) (A) (A) (A) (A) (A) (A) (A) (A) (A) (A)
                 (A) (A) (A) (A) (A) (A) (A) (A) (A) (A) (A) (A)
                 (A) (A) (A) (A) (A) (A) (A) (A) (A) (A) (A) (A)
                 (A) (A) (A) (A) (A) (A) (A) (A) (A) (A)
 The electronic state is 1-A.
 Alpha  occ. eigenvalues --  -14.46557 -14.41257 -10.28363  -1.01653  -0.79708
 Alpha  occ. eigenvalues --   -0.61901  -0.52998  -0.46072  -0.42082  -0.34579
 Alpha  occ. eigenvalues --   -0.21208
 Alpha virt. eigenvalues --   -0.13007  -0.09622   0.01370   0.04462   0.04699
 Alpha virt. eigenvalues --    0.06953   0.11250   0.12358   0.14863   0.15031
 Alpha virt. eigenvalues --    0.17967   0.20118   0.21321   0.21450   0.23314
 Alpha virt. eigenvalues --    0.26212   0.27779   0.30836   0.44020   0.45370
 Alpha virt. eigenvalues --    0.53072   0.55502   0.57663   0.61502   0.66950
 Alpha virt. eigenvalues --    0.74062   0.77929   0.78645   0.78920   0.79988
 Alpha virt. eigenvalues --    0.83369   0.86757   0.93981   0.97500   1.01862
 Alpha virt. eigenvalues --    1.04297   1.06520   1.12752   1.23853   1.28959
 Alpha virt. eigenvalues --    1.32768   1.36705   1.57726   1.58399   1.66593
 Alpha virt. eigenvalues --    1.74916   1.88167   1.88824   1.88969   1.96447
 Alpha virt. eigenvalues --    2.10230   2.31477   2.38476   2.60895   2.73777
 Alpha virt. eigenvalues --    2.80050   3.07456   3.18795   3.25711   3.33819
 Alpha virt. eigenvalues --    3.37312   3.75996   3.76850   3.80275   3.90207
 Alpha virt. eigenvalues --    3.93145   4.08969   4.40933   4.76742   4.78719
 Alpha virt. eigenvalues --    4.82165   4.82740   4.89156   4.92822   4.96604
 Alpha virt. eigenvalues --    5.01221   5.12315   5.21671   5.46428  24.04294
 Alpha virt. eigenvalues --   35.40443  35.47013
     Molecular Orbital Coefficients:
                           1         2         3         4         5
                           O         O         O         O         O
     Eigenvalues --   -14.46557 -14.41257 -10.28363  -1.01653  -0.79708
   1 1   C  1S          0.00001  -0.00002   0.56313  -0.05450   0.07649
   2        2S          0.00004   0.00009   0.46318  -0.08451   0.11992
   3        2PX        -0.00035   0.00001   0.00008  -0.05697   0.02310
   4        2PY         0.00024  -0.00010   0.00087   0.02612  -0.02704
   5        2PZ        -0.00001   0.00000  -0.00003  -0.00058   0.00052
   6        3S          0.00048  -0.00057   0.01975   0.21863  -0.31799
   7        3PX         0.00129   0.00040  -0.00190  -0.07890   0.03145
   8        3PY        -0.00096   0.00032   0.00037   0.03597  -0.04240
   9        3PZ         0.00003  -0.00001   0.00001  -0.00081   0.00090
  10        4S          0.00357  -0.00194   0.00296   0.07006  -0.17113
  11        4PX        -0.00059  -0.00091  -0.00135  -0.00444   0.00658
  12        4PY         0.00013   0.00049   0.00089   0.00311  -0.01356
  13        4PZ         0.00002  -0.00002   0.00000  -0.00016   0.00036
  14        5S         -0.00272  -0.00496  -0.00403   0.04975  -0.00039
  15        5PX         0.00124   0.00183   0.00008  -0.01887  -0.01001
  16        5PY        -0.00029  -0.00073  -0.00052   0.00526  -0.00140
  17        5PZ         0.00001   0.00002   0.00002  -0.00015   0.00002
  18        6D 0        0.00022   0.00014   0.00018  -0.00551   0.00055
  19        6D+1       -0.00001   0.00000   0.00003   0.00024  -0.00026
  20        6D-1        0.00000   0.00000   0.00004  -0.00002  -0.00010
  21        6D+2       -0.00020  -0.00009   0.00064   0.00734  -0.00188
  22        6D-2        0.00029   0.00001  -0.00082  -0.00948   0.00947
  23        7D 0        0.00162  -0.00107   0.00190  -0.00503   0.00671
  24        7D+1        0.00001   0.00000   0.00003   0.00013  -0.00015
  25        7D-1        0.00008  -0.00006   0.00015  -0.00011   0.00035
  26        7D+2       -0.00006  -0.00016   0.00078   0.00484   0.00264
  27        7D-2        0.00060  -0.00016  -0.00117  -0.00720   0.00848
  28 2   H  1S         -0.00010   0.00006   0.00021   0.01967  -0.05131
  29        2S         -0.00177   0.00086  -0.00512   0.02456  -0.06725
  30        3S          0.00001   0.00053   0.00233  -0.00488   0.00352
  31        4PX         0.00046  -0.00016   0.00116  -0.00361   0.00546
  32        4PY        -0.00028   0.00012  -0.00067   0.00178  -0.00408
  33        4PZ        -0.00021   0.00005  -0.00171   0.00370  -0.00934
  34 3   H  1S         -0.00010   0.00006   0.00022   0.01973  -0.05154
  35        2S         -0.00180   0.00087  -0.00512   0.02469  -0.06763
  36        3S          0.00000   0.00053   0.00231  -0.00479   0.00354
  37        4PX         0.00046  -0.00016   0.00117  -0.00362   0.00555
  38        4PY        -0.00026   0.00011  -0.00054   0.00154  -0.00339
  39        4PZ         0.00024  -0.00006   0.00174  -0.00381   0.00961
  40 4   N  1S          0.55768  -0.00114  -0.00010  -0.09956   0.00577
  41        2S          0.46590  -0.00094  -0.00010  -0.15802   0.00909
  42        2PX         0.00020  -0.00016   0.00058   0.01406  -0.14046
  43        2PY        -0.00041  -0.00008  -0.00031  -0.04743  -0.00686
  44        2PZ         0.00000   0.00000   0.00001   0.00109   0.00020
  45        3S          0.01426  -0.00026   0.00160   0.43983  -0.02469
  46        3PX         0.00066  -0.00014  -0.00138   0.01559  -0.20999
  47        3PY        -0.00084   0.00004   0.00089  -0.07131  -0.01474
  48        3PZ         0.00002   0.00000  -0.00003   0.00161   0.00041
  49        4S         -0.00971   0.00360  -0.01010   0.27365  -0.01996
  50        4PX        -0.00020  -0.00174  -0.00575   0.01082  -0.07770
  51        4PY         0.00196  -0.00215   0.00329  -0.02423  -0.00174
  52        4PZ        -0.00005   0.00005  -0.00009   0.00054   0.00006
  53        5S          0.01201  -0.00797  -0.00028  -0.07069   0.03173
  54        5PX        -0.00212   0.00465   0.00358  -0.00527   0.00688
  55        5PY        -0.00189   0.00228   0.00014   0.00846  -0.00312
  56        5PZ         0.00004  -0.00006  -0.00001  -0.00015   0.00004
  57        6D 0       -0.00022  -0.00003   0.00001  -0.00645   0.00017
  58        6D+1        0.00000   0.00000   0.00001   0.00002  -0.00025
  59        6D-1        0.00000   0.00000   0.00000  -0.00014  -0.00003
  60        6D+2        0.00019   0.00006   0.00003   0.00515  -0.00157
  61        6D-2       -0.00012   0.00016  -0.00021  -0.00116   0.01067
  62        7D 0       -0.00005   0.00003   0.00109  -0.00741  -0.00117
  63        7D+1        0.00000   0.00002  -0.00008  -0.00013  -0.00039
  64        7D-1        0.00000   0.00000   0.00001  -0.00013  -0.00010
  65        7D+2        0.00019  -0.00019  -0.00126   0.00560  -0.00223
  66        7D-2        0.00000  -0.00063   0.00271   0.00405   0.01659
  67 5   N  1S          0.00112   0.55768   0.00000  -0.05100  -0.08249
  68        2S          0.00096   0.46620   0.00008  -0.08067  -0.13145
  69        2PX         0.00017   0.00126   0.00008   0.04569   0.03613
  70        2PY         0.00012   0.00098   0.00000   0.02266   0.02833
  71        2PZ         0.00000  -0.00003   0.00000  -0.00057  -0.00070
  72        3S          0.00002   0.01314  -0.00068   0.22253   0.37548
  73        3PX        -0.00019   0.00005  -0.00060   0.07284   0.05840
  74        3PY        -0.00018  -0.00019  -0.00004   0.03692   0.04688
  75        3PZ         0.00000   0.00001   0.00000  -0.00093  -0.00116
  76        4S          0.00178  -0.01118   0.00054   0.14004   0.29240
  77        4PX         0.00098  -0.00284   0.00137   0.02833   0.03584
  78        4PY         0.00027  -0.00112  -0.00021   0.01188   0.02115
  79        4PZ        -0.00001   0.00003   0.00000  -0.00031  -0.00053
  80        5S         -0.00753   0.01621   0.00428  -0.00840  -0.03405
  81        5PX        -0.00222   0.00455   0.00025  -0.00494  -0.01819
  82        5PY        -0.00143   0.00217   0.00089   0.00125  -0.00582
  83        5PZ         0.00003  -0.00005  -0.00002  -0.00004   0.00017
  84        6D 0       -0.00003  -0.00012   0.00011  -0.00317  -0.00176
  85        6D+1        0.00000  -0.00001   0.00000  -0.00015  -0.00015
  86        6D-1        0.00000   0.00000   0.00000  -0.00004  -0.00003
  87        6D+2       -0.00002   0.00015  -0.00014   0.00342   0.00098
  88        6D-2        0.00005   0.00025  -0.00003   0.00576   0.00554
  89        7D 0        0.00031   0.00038  -0.00034  -0.00653  -0.00418
  90        7D+1        0.00001   0.00002   0.00000  -0.00034  -0.00036
  91        7D-1        0.00001   0.00000  -0.00001  -0.00004  -0.00008
  92        7D+2        0.00001  -0.00045   0.00022   0.00815   0.00149
  93        7D-2       -0.00049  -0.00058  -0.00004   0.01239   0.01362
                           6         7         8         9        10
                           O         O         O         O         O
     Eigenvalues --    -0.61901  -0.52998  -0.46072  -0.42082  -0.34579
   1 1   C  1S          0.05783  -0.00004   0.00995  -0.00019   0.00005
   2        2S          0.09168  -0.00006   0.01652   0.00005   0.00008
   3        2PX        -0.12565   0.00143   0.12407   0.03964  -0.00056
   4        2PY         0.08084   0.00629  -0.01094   0.09951  -0.00293
   5        2PZ        -0.00149   0.19795  -0.00040  -0.00346  -0.07968
   6        3S         -0.24465   0.00010  -0.05942  -0.00608  -0.00028
   7        3PX        -0.17012   0.00205   0.18603   0.06613  -0.00069
   8        3PY         0.11254   0.00868  -0.01741   0.15109  -0.00405
   9        3PZ        -0.00210   0.27665  -0.00057  -0.00534  -0.10554
  10        4S         -0.21925   0.00060  -0.04930   0.01049   0.00000
  11        4PX        -0.07759   0.00108   0.11144   0.04091  -0.00037
  12        4PY         0.04733   0.00420  -0.00354   0.10377  -0.00313
  13        4PZ        -0.00090   0.13520  -0.00059  -0.00366  -0.07963
  14        5S         -0.02131   0.00024  -0.00017   0.03110   0.00020
  15        5PX        -0.00457   0.00000   0.00175  -0.00418  -0.00014
  16        5PY         0.00195   0.00069   0.00284   0.01796  -0.00025
  17        5PZ         0.00002   0.01918  -0.00014  -0.00060  -0.00699
  18        6D 0       -0.01251   0.00012   0.00711  -0.00057  -0.00036
  19        6D+1        0.00014   0.00331  -0.00005   0.00026  -0.01692
  20        6D-1       -0.00069  -0.00077   0.00018  -0.00034   0.00815
  21        6D+2        0.00072   0.00004  -0.00685  -0.00975  -0.00034
  22        6D-2       -0.00685   0.00019   0.00336  -0.00577  -0.00053
  23        7D 0       -0.00535  -0.00043   0.00219  -0.00065  -0.00053
  24        7D+1        0.00003  -0.01527  -0.00006   0.00034  -0.03566
  25        7D-1       -0.00024   0.01180  -0.00013  -0.00047   0.01692
  26        7D+2       -0.00051  -0.00040  -0.00546  -0.01150  -0.00072
  27        7D-2       -0.00597  -0.00041   0.00347  -0.00371  -0.00107
  28 2   H  1S         -0.10959  -0.12674   0.03806  -0.00545   0.08559
  29        2S         -0.15005  -0.19840   0.06083  -0.01010   0.13479
  30        3S         -0.00318  -0.03046   0.01333  -0.00384   0.08080
  31        4PX         0.00457   0.01126   0.00279   0.00378  -0.00639
  32        4PY        -0.00208  -0.00572   0.00266   0.00679   0.00397
  33        4PZ        -0.01895  -0.01412   0.00592  -0.00141   0.00595
  34 3   H  1S         -0.10855   0.12757   0.03755  -0.00522  -0.08581
  35        2S         -0.14841   0.19919   0.06008  -0.00989  -0.13556
  36        3S         -0.00311   0.03061   0.01318  -0.00357  -0.08133
  37        4PX         0.00459  -0.01131   0.00277   0.00375   0.00648
  38        4PY        -0.00072   0.00465   0.00224   0.00690  -0.00362
  39        4PZ         0.01888  -0.01451  -0.00604   0.00092   0.00629
  40 4   N  1S         -0.05292   0.00010  -0.04158   0.00117  -0.00024
  41        2S         -0.08564   0.00016  -0.06715   0.00201  -0.00040
  42        2PX         0.06401  -0.00014  -0.13192   0.09243   0.00083
  43        2PY         0.02104   0.00358   0.14702   0.15470   0.00667
  44        2PZ        -0.00046   0.11186  -0.00396  -0.00580   0.19854
  45        3S          0.25436  -0.00051   0.19421  -0.01163   0.00115
  46        3PX         0.09503  -0.00021  -0.19736   0.14534   0.00135
  47        3PY         0.03356   0.00549   0.21944   0.24057   0.01024
  48        3PZ        -0.00078   0.17215  -0.00595  -0.00902   0.30605
  49        4S          0.22800  -0.00023   0.32291   0.01484   0.00204
  50        4PX         0.03649  -0.00010  -0.10064   0.10482   0.00093
  51        4PY         0.02487   0.00366   0.14241   0.18695   0.00872
  52        4PZ        -0.00058   0.11495  -0.00389  -0.00697   0.26366
  53        5S         -0.09871   0.00010   0.00823  -0.02057   0.00102
  54        5PX         0.03370  -0.00023   0.01873  -0.01473  -0.00003
  55        5PY         0.02147  -0.00035   0.00812  -0.00025   0.00127
  56        5PZ        -0.00061  -0.00885  -0.00014  -0.00006   0.04510
  57        6D 0       -0.00098   0.00018   0.00405   0.00170   0.00017
  58        6D+1        0.00011   0.00521  -0.00018  -0.00003  -0.00386
  59        6D-1        0.00000  -0.00434   0.00019   0.00025  -0.00355
  60        6D+2        0.00192   0.00016   0.00063   0.00528   0.00008
  61        6D-2       -0.00472   0.00018   0.00724  -0.00043  -0.00016
  62        7D 0        0.00079   0.00049   0.00052   0.00030   0.00061
  63        7D+1       -0.00003   0.01029  -0.00028  -0.00016  -0.01990
  64        7D-1        0.00014  -0.01249   0.00066   0.00088  -0.01453
  65        7D+2        0.00504   0.00051   0.02411   0.03002   0.00043
  66        7D-2       -0.00108   0.00035   0.00922   0.00289  -0.00065
  67 5   N  1S          0.04750  -0.00036   0.04358  -0.05150  -0.00021
  68        2S          0.07619  -0.00058   0.07041  -0.08314  -0.00033
  69        2PX         0.00973  -0.00046   0.03697  -0.15957  -0.00169
  70        2PY         0.00882   0.00094   0.11262  -0.03041   0.00355
  71        2PZ        -0.00018   0.03503  -0.00295  -0.00023   0.15751
  72        3S         -0.22271   0.00171  -0.20683   0.24259   0.00093
  73        3PX         0.01171  -0.00070   0.05036  -0.24019  -0.00258
  74        3PY         0.01110   0.00149   0.16839  -0.04925   0.00552
  75        3PZ        -0.00022   0.05531  -0.00439  -0.00031   0.24296
  76        4S         -0.21505   0.00177  -0.25834   0.32107   0.00163
  77        4PX         0.00041  -0.00040   0.01659  -0.14723  -0.00184
  78        4PY         0.00398   0.00099   0.10709  -0.02287   0.00469
  79        4PZ        -0.00005   0.03664  -0.00280  -0.00056   0.20053
  80        5S          0.09763  -0.00025   0.00863   0.04054  -0.00019
  81        5PX         0.03098  -0.00011   0.01181  -0.00874  -0.00038
  82        5PY         0.01787  -0.00002   0.01697  -0.00018   0.00041
  83        5PZ        -0.00037   0.00176  -0.00045  -0.00009   0.01975
  84        6D 0       -0.00106  -0.00005  -0.00359   0.00538  -0.00014
  85        6D+1        0.00000   0.00284  -0.00017   0.00005   0.00671
  86        6D-1       -0.00005   0.00148  -0.00024   0.00004   0.00438
  87        6D+2        0.00037  -0.00007  -0.00292  -0.00702  -0.00018
  88        6D-2        0.00042   0.00007   0.00694  -0.00477   0.00012
  89        7D 0       -0.00163  -0.00018  -0.00439   0.01239  -0.00052
  90        7D+1        0.00005   0.01025  -0.00032   0.00001   0.02671
  91        7D-1       -0.00007   0.00549  -0.00050   0.00012   0.01435
  92        7D+2        0.00154  -0.00022  -0.01024  -0.01380  -0.00055
  93        7D-2       -0.00073   0.00026   0.01315  -0.00947   0.00060
                          11        12        13        14        15
                           O         V         V         V         V
     Eigenvalues --    -0.21208  -0.13007  -0.09622   0.01370   0.04462
   1 1   C  1S         -0.01524  -0.01529   0.00008   0.03416  -0.00729
   2        2S         -0.02526  -0.02538   0.00013   0.05785  -0.01188
   3        2PX        -0.10597   0.05245  -0.00161  -0.05648  -0.00647
   4        2PY        -0.09781   0.18734  -0.00410   0.02126  -0.02166
   5        2PZ         0.00368  -0.00665  -0.00348  -0.00061  -0.00251
   6        3S          0.07917   0.08187  -0.00050  -0.20293   0.01271
   7        3PX        -0.15796   0.07826  -0.00251  -0.10129  -0.00655
   8        3PY        -0.16592   0.29858  -0.00681   0.03369  -0.04083
   9        3PZ         0.00614  -0.01074  -0.01294  -0.00093  -0.00508
  10        4S          0.04807   0.15828  -0.00188  -0.21900   0.46167
  11        4PX        -0.13564   0.12438  -0.00287  -0.34207  -0.22104
  12        4PY        -0.18781   0.37402  -0.01045   0.19383   0.05144
  13        4PZ         0.00702  -0.01343  -0.03724  -0.00490  -0.00804
  14        5S         -0.00545  -0.04283   0.00255   2.83743   2.61938
  15        5PX        -0.03645   0.07996  -0.00239   0.09318  -1.71353
  16        5PY        -0.03792   0.14767  -0.00229   0.28571   1.36015
  17        5PZ         0.00140  -0.00445   0.06697  -0.00800   0.01908
  18        6D 0       -0.00037  -0.00243   0.00044   0.00057   0.00647
  19        6D+1       -0.00002   0.00013   0.01565  -0.00005  -0.00021
  20        6D-1        0.00014  -0.00013  -0.00931   0.00003   0.00026
  21        6D+2        0.00388   0.00528   0.00022   0.00097  -0.00232
  22        6D-2       -0.00213   0.00181   0.00038   0.00176   0.00681
  23        7D 0        0.00873   0.00055   0.00151  -0.03958   0.03950
  24        7D+1        0.00007  -0.00014   0.03614   0.00030  -0.00107
  25        7D-1        0.00040   0.00012  -0.03350  -0.00183   0.00282
  26        7D+2       -0.00189   0.02319   0.00048   0.01904   0.00441
  27        7D-2       -0.00326   0.01671   0.00070  -0.01289   0.02263
  28 2   H  1S         -0.00333  -0.00833  -0.04638  -0.00929   0.00873
  29        2S         -0.00693  -0.02453  -0.09134   0.11634  -0.04450
  30        3S         -0.00026  -0.01694  -0.16160  -0.12216   0.17012
  31        4PX        -0.00844   0.00844  -0.00083   0.00216  -0.00721
  32        4PY        -0.01062   0.01937  -0.00028  -0.00040   0.00457
  33        4PZ        -0.00016  -0.00089  -0.00023  -0.01294  -0.00689
  34 3   H  1S         -0.00382  -0.00683   0.04655  -0.00915   0.00731
  35        2S         -0.00794  -0.02193   0.09217   0.11605  -0.03776
  36        3S         -0.00116  -0.01299   0.15986  -0.12166   0.14651
  37        4PX        -0.00845   0.00843   0.00040   0.00226  -0.00678
  38        4PY        -0.01055   0.01938  -0.00065   0.00046   0.00480
  39        4PZ         0.00100  -0.00054  -0.00034   0.01297   0.00721
  40 4   N  1S          0.00426   0.02560  -0.00036   0.00453   0.02058
  41        2S          0.00687   0.04171  -0.00058   0.00775   0.03459
  42        2PX         0.01943   0.00530  -0.00032   0.01266  -0.02562
  43        2PY        -0.04045  -0.14314  -0.00255  -0.03729  -0.01260
  44        2PZ         0.00165   0.00154  -0.18582   0.00091   0.00097
  45        3S         -0.01850  -0.11901   0.00165  -0.02601  -0.11633
  46        3PX         0.02997   0.00340  -0.00041   0.00526  -0.03554
  47        3PY        -0.06025  -0.21486  -0.00397  -0.05259  -0.02829
  48        3PZ         0.00250   0.00225  -0.28477   0.00140   0.00125
  49        4S         -0.03478  -0.28540   0.00491  -0.24427  -0.27887
  50        4PX         0.02744  -0.02722   0.00053   0.00453  -0.05790
  51        4PY        -0.05280  -0.20441  -0.00426   0.01667   0.10799
  52        4PZ         0.00221   0.00224  -0.29414  -0.00037   0.00066
  53        5S          0.09342  -0.20081   0.00858  -0.01113  -1.90399
  54        5PX        -0.05163  -0.01488  -0.00154  -1.15353  -0.88703
  55        5PY        -0.03198  -0.11483  -0.00413  -0.23930  -0.21861
  56        5PZ         0.00097   0.00132  -0.19968   0.00816  -0.00806
  57        6D 0       -0.00116  -0.00510   0.00017  -0.00046   0.00048
  58        6D+1        0.00038  -0.00032  -0.00889  -0.00001  -0.00002
  59        6D-1        0.00003   0.00004  -0.00159  -0.00003   0.00005
  60        6D+2        0.00294   0.01094  -0.00015  -0.00035  -0.00220
  61        6D-2       -0.01124   0.00331  -0.00036  -0.00031  -0.00082
  62        7D 0       -0.00015  -0.01018   0.00070   0.02082   0.01677
  63        7D+1        0.00139  -0.00126  -0.03004   0.00030  -0.00011
  64        7D-1        0.00034   0.00025  -0.01086   0.00068   0.00079
  65        7D+2        0.01173   0.03382  -0.00029  -0.00999  -0.01075
  66        7D-2       -0.03891   0.01763  -0.00136  -0.00612  -0.00531
  67 5   N  1S          0.00226  -0.01105   0.00027   0.00672   0.00948
  68        2S          0.00372  -0.01817   0.00045   0.01140   0.01640
  69        2PX        -0.17041   0.03004  -0.00159  -0.01045   0.01613
  70        2PY         0.19984   0.14008   0.00471   0.02283   0.00044
  71        2PZ        -0.00712   0.00140   0.23660  -0.00048  -0.00143
  72        3S         -0.01139   0.06317  -0.00152  -0.04763  -0.07106
  73        3PX        -0.24867   0.04797  -0.00241  -0.00854   0.02196
  74        3PY         0.29974   0.20847   0.00724   0.03896   0.00483
  75        3PZ        -0.01061   0.00224   0.35687  -0.00083  -0.00233
  76        4S         -0.00990   0.04149  -0.00126   0.06780   0.07638
  77        4PX        -0.24645   0.02734  -0.00227   0.01644   0.10172
  78        4PY         0.30273   0.20452   0.00812   0.05367   0.00977
  79        4PZ        -0.01067   0.00261   0.39020  -0.00103  -0.00279
  80        5S         -0.14041   0.04741  -0.00685  -1.84260  -1.44521
  81        5PX        -0.09876   0.02297  -0.00275  -0.50001  -0.35230
  82        5PY         0.06261   0.07516   0.00379  -0.30022  -0.10156
  83        5PZ        -0.00253   0.00139   0.20709   0.00610   0.00140
  84        6D 0        0.00017  -0.00118   0.00004  -0.00040   0.00051
  85        6D+1       -0.00001  -0.00005  -0.00149   0.00003   0.00006
  86        6D-1       -0.00009   0.00001  -0.00063  -0.00001  -0.00001
  87        6D+2       -0.00332   0.00167  -0.00002   0.00047  -0.00074
  88        6D-2       -0.00014   0.00261  -0.00008  -0.00093  -0.00138
  89        7D 0        0.00051  -0.00080   0.00018   0.00118   0.00229
  90        7D+1       -0.00029   0.00010   0.00083  -0.00008  -0.00011
  91        7D-1       -0.00030   0.00020  -0.00493   0.00019   0.00025
  92        7D+2       -0.01201   0.00902  -0.00012   0.00438   0.00657
  93        7D-2        0.00899   0.00356   0.00004   0.00447   0.00019
                          16        17        18        19        20
                           V         V         V         V         V
     Eigenvalues --     0.04699   0.06953   0.11250   0.12358   0.14863
   1 1   C  1S          0.00022  -0.00320  -0.00025  -0.04006   0.00059
   2        2S          0.00035  -0.00496  -0.00024  -0.06475   0.00100
   3        2PX        -0.00005  -0.03142   0.03351   0.04187  -0.00010
   4        2PY        -0.00214  -0.10189   0.00000  -0.02967   0.00289
   5        2PZ        -0.08678   0.00372  -0.00064   0.00142   0.06368
   6        3S         -0.00036   0.00803  -0.00180   0.11318  -0.00277
   7        3PX        -0.00043  -0.03575   0.03692   0.05147   0.00203
   8        3PY        -0.00444  -0.14393  -0.02265  -0.01184   0.00238
   9        3PZ        -0.17492   0.00527  -0.00003   0.00103   0.06520
  10        4S         -0.01322   0.03099  -0.01690   1.98165  -0.03067
  11        4PX         0.00569   0.00745   0.32776   0.33097   0.00245
  12        4PY        -0.00693  -0.42227  -0.01091  -0.40275   0.01282
  13        4PZ        -0.18914   0.01523  -0.00385   0.01680   0.40584
  14        5S         -0.09366  -1.26229   0.21053   0.88839  -0.04096
  15        5PX         0.06815   1.36424   0.43041   0.37480   0.00268
  16        5PY         0.01168   0.95533   0.59994  -0.79262  -0.02450
  17        5PZ         1.67134  -0.03802  -0.01760   0.02626  -0.32830
  18        6D 0       -0.00025  -0.00239  -0.00212  -0.01714   0.00009
  19        6D+1       -0.00224   0.00004   0.00007  -0.00024  -0.00258
  20        6D-1        0.00057  -0.00004   0.00007  -0.00102   0.00049
  21        6D+2        0.00007   0.00292   0.00763  -0.00222   0.00018
  22        6D-2       -0.00029  -0.00151  -0.00238   0.00239  -0.00036
  23        7D 0       -0.00253  -0.00778   0.01004  -0.00634  -0.00061
  24        7D+1       -0.01944  -0.00039  -0.00002  -0.00064  -0.05923
  25        7D-1        0.01736   0.00006   0.00146  -0.00037   0.03176
  26        7D+2       -0.00061   0.01932   0.04242  -0.00579  -0.00056
  27        7D-2       -0.00166   0.01173   0.00840   0.01548  -0.00210
  28 2   H  1S          0.02581  -0.00401   0.00548  -0.06578   0.01281
  29        2S         -0.08577  -0.02787  -0.00935  -0.26447  -0.03748
  30        3S          0.38608  -0.07978  -0.15314  -1.38626   0.83886
  31        4PX        -0.00378   0.00374   0.00777   0.01194   0.01449
  32        4PY         0.00276  -0.00110   0.00194  -0.00585  -0.00413
  33        4PZ         0.00771   0.00450   0.00330   0.01280  -0.01619
  34 3   H  1S         -0.02641  -0.00390   0.00581  -0.06621  -0.01040
  35        2S          0.08806  -0.02827  -0.00934  -0.26595   0.03950
  36        3S         -0.39403  -0.07929  -0.14043  -1.39929  -0.77305
  37        4PX         0.00433   0.00376   0.00791   0.01183  -0.01374
  38        4PY        -0.00252  -0.00140   0.00149  -0.00651   0.00276
  39        4PZ         0.00736  -0.00441  -0.00320  -0.01246  -0.01594
  40 4   N  1S         -0.00071  -0.00957  -0.02734   0.01381   0.00009
  41        2S         -0.00119  -0.01623  -0.04623   0.02309   0.00013
  42        2PX         0.00092   0.00099  -0.04530  -0.00051   0.00163
  43        2PY         0.00078   0.01282  -0.03899  -0.01844  -0.00343
  44        2PZ         0.01448  -0.00057   0.00137   0.00085  -0.06914
  45        3S          0.00402   0.05705   0.17984  -0.06865  -0.00073
  46        3PX         0.00113  -0.00849  -0.05853   0.00353   0.00218
  47        3PY         0.00107   0.00921  -0.05666  -0.01122  -0.00402
  48        3PZ         0.00781  -0.00048   0.00194   0.00068  -0.08186
  49        4S          0.00798   0.13617   0.05064  -0.18789   0.00348
  50        4PX         0.00164   0.11757   0.19719   0.00562   0.00951
  51        4PY        -0.00061   0.06768   0.03915   0.02116  -0.01693
  52        4PZ         0.09369  -0.00329   0.00053   0.00062  -0.31408
  53        5S          0.06220   0.68102   7.03978  -3.98775   0.02035
  54        5PX         0.02566  -0.10621  -2.65729   1.43855  -0.01266
  55        5PY        -0.00728  -0.24750  -1.95158   2.03844   0.03157
  56        5PZ        -0.47052   0.00834   0.04789  -0.06225   0.60033
  57        6D 0       -0.00011   0.00064   0.00217  -0.00576   0.00001
  58        6D+1       -0.00130   0.00010   0.00001   0.00008   0.00577
  59        6D-1        0.00226  -0.00015   0.00005  -0.00027   0.00077
  60        6D+2       -0.00001  -0.00563  -0.00246  -0.00009  -0.00017
  61        6D-2       -0.00001  -0.00258  -0.00134  -0.00073   0.00018
  62        7D 0       -0.00096  -0.00414   0.03288  -0.01345  -0.00094
  63        7D+1       -0.00427   0.00022   0.00119  -0.00059  -0.01085
  64        7D-1        0.01038  -0.00050   0.00094  -0.00114   0.01329
  65        7D+2       -0.00011  -0.00973  -0.01749  -0.00762   0.00001
  66        7D-2        0.00012  -0.00968  -0.05034   0.01276  -0.00133
  67 5   N  1S         -0.00041  -0.00827   0.03309   0.00289   0.00000
  68        2S         -0.00071  -0.01428   0.05490   0.00514  -0.00002
  69        2PX        -0.00068  -0.03438  -0.01257   0.03836   0.00208
  70        2PY        -0.00146  -0.04469  -0.03762   0.02588  -0.00608
  71        2PZ        -0.04561   0.00159   0.00083  -0.00153  -0.09108
  72        3S          0.00305   0.05814  -0.19916  -0.02535   0.00018
  73        3PX        -0.00083  -0.03711  -0.03583   0.03089   0.00228
  74        3PY        -0.00238  -0.06373  -0.05724   0.03295  -0.00585
  75        3PZ        -0.07042   0.00227   0.00123  -0.00193  -0.08792
  76        4S         -0.00248   0.03727  -0.10739   0.02210  -0.00071
  77        4PX        -0.00385  -0.08116   0.25470   0.25095   0.00806
  78        4PY        -0.00289  -0.06816   0.06846   0.09757  -0.02471
  79        4PZ        -0.08299   0.00282  -0.00186  -0.00533  -0.37786
  80        5S          0.05292   0.64073  -6.55670   4.57530   0.00399
  81        5PX         0.01552   0.42742  -2.85152   1.02889  -0.01230
  82        5PY         0.00133  -0.07036  -1.62918   0.40464   0.06386
  83        5PZ        -0.01449   0.00193   0.03917   0.00062   0.94893
  84        6D 0        0.00001   0.00044  -0.00145   0.00024   0.00011
  85        6D+1        0.00047  -0.00001  -0.00002   0.00004  -0.00363
  86        6D-1       -0.00043   0.00003  -0.00003  -0.00004  -0.00199
  87        6D+2        0.00004   0.00041   0.00158  -0.00158   0.00016
  88        6D-2        0.00006  -0.00011   0.00172  -0.00153  -0.00020
  89        7D 0       -0.00007  -0.00656  -0.03538  -0.01617   0.00050
  90        7D+1       -0.00309  -0.00005  -0.00125  -0.00001  -0.01775
  91        7D-1       -0.00107  -0.00016  -0.00072  -0.00074  -0.00830
  92        7D+2       -0.00014   0.00490   0.03233   0.00654   0.00079
  93        7D-2       -0.00007   0.00381   0.05285  -0.00057  -0.00097
                          21        22        23        24        25
                           V         V         V         V         V
     Eigenvalues --     0.15031   0.17967   0.20118   0.21321   0.21450
   1 1   C  1S          0.00898   0.00006   0.02441  -0.00064   0.01014
   2        2S          0.01552   0.00009   0.03987  -0.00094   0.01511
   3        2PX        -0.00429  -0.00080  -0.04231  -0.00031  -0.01604
   4        2PY         0.02039  -0.00077  -0.00220  -0.00150  -0.04761
   5        2PZ        -0.00308  -0.02065   0.00335  -0.17597  -0.01428
   6        3S         -0.04718  -0.00086  -0.10614  -0.00073   0.00238
   7        3PX         0.04592  -0.00114  -0.03586   0.00417  -0.06794
   8        3PY         0.01936  -0.00117   0.02416  -0.00395  -0.02286
   9        3PZ        -0.00340  -0.04581   0.00330  -0.20315  -0.01766
  10        4S         -0.53709   0.01576  -0.74021   0.04408  -0.77473
  11        4PX         0.04634  -0.01758  -0.47022  -0.00246  -0.07537
  12        4PY        -0.05178  -0.00804  -0.01624  -0.02087  -0.36485
  13        4PZ        -0.01685  -0.30577   0.03143  -1.58524  -0.13072
  14        5S         -0.99185  -0.05422  -2.74578   0.01726  -1.68700
  15        5PX         0.12478   0.00840  -0.05461   0.02538   0.03085
  16        5PY        -0.67015  -0.03852  -0.82239  -0.02673  -1.03719
  17        5PZ         0.02942  -0.89496   0.07694  -2.32022  -0.18431
  18        6D 0        0.00183   0.00014   0.00583   0.00069  -0.00095
  19        6D+1        0.00030   0.00705  -0.00011   0.01103   0.00080
  20        6D-1        0.00026  -0.00208   0.00079  -0.00758  -0.00108
  21        6D+2        0.00452   0.00014   0.00681   0.00130  -0.00981
  22        6D-2       -0.00518   0.00014  -0.00499   0.00006   0.00605
  23        7D 0        0.01337  -0.00500   0.00484   0.00273  -0.01332
  24        7D+1        0.00205  -0.06198   0.00172   0.01894   0.00050
  25        7D-1        0.00032   0.08903   0.00070  -0.01291  -0.00287
  26        7D+2        0.00967  -0.00211   0.01631   0.00401  -0.04605
  27        7D-2       -0.00221  -0.00291  -0.02736  -0.00064   0.02075
  28 2   H  1S          0.01994  -0.00491   0.04719  -0.03647  -0.01774
  29        2S          0.01066  -0.17718   0.05004  -0.10474   0.03376
  30        3S          0.58326   0.07025   1.62547  -2.82683  -1.08791
  31        4PX         0.00812   0.00264   0.01007  -0.01691  -0.01149
  32        4PY        -0.00191  -0.00741  -0.00135   0.01344   0.00123
  33        4PZ        -0.00248  -0.01424  -0.01051   0.01709   0.00324
  34 3   H  1S          0.02081   0.00615   0.04565   0.03980  -0.01132
  35        2S          0.01019   0.17513   0.04162   0.09917   0.05318
  36        3S          0.64496  -0.01698   1.53310   3.01414  -0.57365
  37        4PX         0.00911  -0.00238   0.00968   0.01857  -0.00853
  38        4PY        -0.00188   0.00629  -0.00026  -0.01172  -0.00097
  39        4PZ         0.00357  -0.01434   0.01033   0.01854  -0.00005
  40 4   N  1S          0.00464  -0.00005  -0.00900  -0.00068   0.01069
  41        2S          0.00749  -0.00009  -0.01510  -0.00112   0.01756
  42        2PX         0.03689  -0.00051  -0.01832  -0.00075  -0.01141
  43        2PY        -0.03832  -0.00352  -0.08538  -0.00348   0.03209
  44        2PZ         0.00334  -0.08987   0.00308   0.04997   0.00317
  45        3S         -0.03168   0.00056   0.04939   0.00260  -0.04457
  46        3PX         0.04773  -0.00060  -0.00970  -0.00330   0.00835
  47        3PY        -0.04149  -0.00380  -0.10015  -0.00397   0.04424
  48        3PZ         0.00379  -0.09818   0.00308   0.07303   0.00486
  49        4S          0.06319  -0.00792   0.11315   0.01974  -0.26454
  50        4PX         0.22881  -0.00631  -0.15367   0.00659  -0.13760
  51        4PY        -0.20568  -0.01224  -0.30557  -0.01725   0.12202
  52        4PZ         0.01582  -0.46665   0.01318   0.25466   0.01689
  53        5S         -0.23396  -0.13161  -1.34005   0.04448   0.22913
  54        5PX         0.01403   0.04445   1.41660  -0.35799   4.71887
  55        5PY         0.72472   0.15789   2.88389   0.11974  -0.40911
  56        5PZ        -0.03290   2.77059  -0.14946   0.89904   0.10237
  57        6D 0        0.00070  -0.00023  -0.00226  -0.00012  -0.00042
  58        6D+1       -0.00026  -0.00256   0.00023  -0.00792  -0.00088
  59        6D-1       -0.00009   0.00224  -0.00024   0.00680   0.00049
  60        6D+2       -0.00420  -0.00003  -0.00095  -0.00009  -0.00303
  61        6D-2        0.00055  -0.00012  -0.00074  -0.00099   0.00725
  62        7D 0       -0.01126  -0.00139  -0.00255  -0.00024  -0.00369
  63        7D+1        0.00090  -0.01936   0.00057  -0.01706  -0.00252
  64        7D-1       -0.00054   0.03723  -0.00143   0.00868   0.00068
  65        7D+2        0.00963  -0.00171  -0.02436  -0.00096  -0.00072
  66        7D-2       -0.02364  -0.00029   0.00205  -0.00423   0.03918
  67 5   N  1S         -0.00027   0.00002  -0.00449   0.00102  -0.00833
  68        2S         -0.00079   0.00005  -0.00615   0.00162  -0.01315
  69        2PX         0.04922  -0.00049  -0.03328  -0.00672   0.05729
  70        2PY        -0.08764   0.00259   0.01324  -0.00214   0.00237
  71        2PZ         0.00651   0.05937  -0.00013  -0.06595  -0.00561
  72        3S          0.00730  -0.00046  -0.00512  -0.00388   0.03166
  73        3PX         0.05274  -0.00090  -0.05343  -0.00731   0.05535
  74        3PY        -0.08265   0.00245   0.00023  -0.00404   0.01500
  75        3PZ         0.00629   0.06333   0.00042  -0.07454  -0.00674
  76        4S         -0.03139   0.00263   0.28921  -0.02752   0.20050
  77        4PX         0.19370   0.00146  -0.07649  -0.02885   0.22967
  78        4PY        -0.35654   0.01294   0.10297  -0.00164  -0.06580
  79        4PZ         0.02665   0.26352  -0.00289  -0.27943  -0.02148
  80        5S          1.00956   0.15983   2.75710  -0.21654   3.47695
  81        5PX         0.01472   0.04401   0.49315   0.09747  -0.83998
  82        5PY         1.11263  -0.05850  -0.90138  -0.15973   1.87236
  83        5PZ        -0.07567  -1.69753   0.05189   0.57400  -0.00450
  84        6D 0        0.00062  -0.00009  -0.00400  -0.00015  -0.00005
  85        6D+1        0.00022  -0.00042  -0.00014   0.00073   0.00009
  86        6D-1        0.00017   0.00053  -0.00013   0.00203   0.00027
  87        6D+2        0.00221  -0.00002   0.00338  -0.00027   0.00348
  88        6D-2       -0.00318   0.00006   0.00513   0.00016  -0.00102
  89        7D 0        0.00326  -0.00132  -0.01707  -0.00036  -0.00172
  90        7D+1        0.00109   0.00700  -0.00066  -0.00897  -0.00045
  91        7D-1        0.00087   0.01723  -0.00121   0.01042   0.00128
  92        7D+2        0.01182  -0.00039   0.00137  -0.00227   0.01601
  93        7D-2       -0.01456   0.00075   0.01940   0.00068  -0.00872
                          26        27        28        29        30
                           V         V         V         V         V
     Eigenvalues --     0.23314   0.26212   0.27779   0.30836   0.44020
   1 1   C  1S         -0.00484   0.02284  -0.02432   0.02508   0.02835
   2        2S         -0.00661   0.03781  -0.04074   0.04337   0.05140
   3        2PX         0.04981   0.04550   0.04406   0.05456   0.07798
   4        2PY        -0.01617  -0.00015   0.00181  -0.02506  -0.05770
   5        2PZ        -0.00177   0.00054   0.00112   0.00029   0.00141
   6        3S         -0.01818  -0.08756   0.15075  -0.06366  -0.07694
   7        3PX         0.07488   0.12447   0.02886   0.24933   0.15919
   8        3PY        -0.02443  -0.04278   0.00831  -0.13409  -0.08114
   9        3PZ        -0.00175   0.00150   0.00043   0.00334   0.00667
  10        4S          1.27935  -1.33874   0.37886  -4.08609  -1.86583
  11        4PX        -0.03504   1.19843   0.02829   3.32311   0.17799
  12        4PY        -0.09032  -0.29786   0.57390  -1.60372  -0.10768
  13        4PZ        -0.01546   0.01367  -0.00553   0.03785   0.07684
  14        5S          6.76468  -2.34852   1.47435  -1.15884  -0.08775
  15        5PX        -2.66063  -0.02378   0.56336   0.17963   0.84538
  16        5PY         0.97883  -0.76863  -0.42221   0.31644  -0.63712
  17        5PZ        -0.05473   0.03119   0.02871  -0.02274  -0.01838
  18        6D 0       -0.00757  -0.01128   0.00942  -0.02478   0.01440
  19        6D+1        0.00042  -0.00019  -0.00050   0.00037  -0.00023
  20        6D-1       -0.00030  -0.00006   0.00039  -0.00104   0.00177
  21        6D+2        0.00473   0.02010   0.00234   0.01003   0.00986
  22        6D-2       -0.01267   0.00428   0.01682  -0.02027  -0.01797
  23        7D 0       -0.04402   0.09773  -0.04296   0.14784   0.00161
  24        7D+1        0.00148  -0.00210  -0.00159  -0.00381   0.01123
  25        7D-1       -0.00061   0.00481  -0.00488   0.00012  -0.00223
  26        7D+2        0.06589   0.00201  -0.00733  -0.16219   0.03549
  27        7D-2       -0.04692   0.08659  -0.03843   0.13535  -0.21063
  28 2   H  1S          0.00208  -0.01251  -0.02226  -0.03428   0.08945
  29        2S         -0.04025  -0.17217   0.24339  -0.28423   1.21331
  30        3S         -0.44811  -0.08650  -1.75859  -1.04354  -1.81534
  31        4PX         0.01511   0.02392  -0.03233   0.03176  -0.02711
  32        4PY        -0.00949  -0.00333   0.02280  -0.02147   0.01198
  33        4PZ         0.00673  -0.00277   0.01273   0.00857   0.02383
  34 3   H  1S          0.00253  -0.01234  -0.02204  -0.03533   0.08328
  35        2S         -0.04092  -0.17044   0.24853  -0.29183   1.09620
  36        3S         -0.37077  -0.12287  -1.81606  -1.01677  -1.73889
  37        4PX         0.01534   0.02384  -0.03319   0.03123  -0.02805
  38        4PY        -0.01028  -0.00270   0.02151  -0.02217   0.01107
  39        4PZ        -0.00542   0.00265  -0.01501  -0.00638  -0.01726
  40 4   N  1S         -0.04307  -0.04223   0.00232  -0.00196  -0.01781
  41        2S         -0.07032  -0.06905   0.00315  -0.00178  -0.02800
  42        2PX         0.00586  -0.10163  -0.11681   0.13624   0.12079
  43        2PY        -0.00390  -0.12576  -0.06323  -0.04461  -0.03843
  44        2PZ         0.00034   0.00297   0.00105   0.00044  -0.00302
  45        3S          0.19924   0.14971   0.00201  -0.07862   0.02258
  46        3PX         0.01761  -0.12765  -0.21149   0.24467   0.12979
  47        3PY        -0.04001  -0.21627  -0.05375  -0.07580  -0.03217
  48        3PZ         0.00142   0.00512   0.00076   0.00104  -0.00496
  49        4S          1.09984   2.09219  -0.50469   2.27774   0.72035
  50        4PX        -0.14818  -0.32266  -0.70553   1.97966   0.50776
  51        4PY         0.26473  -0.84976  -0.56570  -0.95353  -0.57032
  52        4PZ        -0.00490   0.01897   0.01097   0.01841  -0.00160
  53        5S         -6.06469  -8.91679  17.46922  16.79246  -1.41822
  54        5PX        -1.48683   5.18030  -4.35482  -2.56853   2.24423
  55        5PY        -0.07689   1.96914  -3.75500  -3.87277   0.42394
  56        5PZ         0.02245  -0.05037   0.10207   0.11276  -0.01517
  57        6D 0       -0.00499   0.01351   0.00888   0.00897   0.00668
  58        6D+1       -0.00012   0.00031   0.00009  -0.00035   0.00011
  59        6D-1       -0.00011   0.00030   0.00020   0.00030  -0.00004
  60        6D+2        0.00049  -0.01056  -0.00323  -0.00165  -0.00103
  61        6D-2        0.00038  -0.01076  -0.00422   0.01452   0.01217
  62        7D 0        0.01377  -0.01804   0.02357  -0.05518   0.03022
  63        7D+1       -0.00051  -0.00030   0.00067   0.00166   0.00315
  64        7D-1        0.00083  -0.00082   0.00020  -0.00172  -0.00011
  65        7D+2        0.00868  -0.00040  -0.03691   0.03501  -0.00917
  66        7D-2        0.01152   0.00198  -0.01262  -0.08753   0.03444
  67 5   N  1S         -0.01688   0.04338   0.00412  -0.01483  -0.00231
  68        2S         -0.02507   0.06992   0.00748  -0.02356  -0.00681
  69        2PX        -0.03872  -0.15903  -0.10766   0.01580   0.03973
  70        2PY        -0.05808  -0.07982  -0.07955   0.05551   0.02663
  71        2PZ         0.00080   0.00220   0.00240  -0.00134  -0.00063
  72        3S          0.02118  -0.15825  -0.02954   0.05048   0.09207
  73        3PX        -0.05317  -0.27190  -0.11361   0.03645   0.08570
  74        3PY        -0.06376  -0.13418  -0.09944   0.07918   0.01803
  75        3PZ         0.00072   0.00353   0.00287  -0.00223  -0.00115
  76        4S          0.95131  -1.58809  -0.05975   0.54161  -0.55251
  77        4PX        -0.03001  -0.78846  -0.80311   0.04566  -0.24099
  78        4PY        -0.26931  -0.42283  -0.42111   0.34766   0.14975
  79        4PZ         0.00440   0.01154   0.01320  -0.00691   0.00153
  80        5S         -3.47733  12.41000 -16.79370 -12.71593   4.40193
  81        5PX        -0.99722   3.67525  -4.63716  -3.58679   1.15764
  82        5PY         0.36640   2.65386  -2.35035  -2.03501   0.87607
  83        5PZ        -0.00817  -0.06926   0.04060   0.03935  -0.01747
  84        6D 0       -0.00463  -0.00481  -0.00527   0.00557  -0.00062
  85        6D+1       -0.00017  -0.00016  -0.00018   0.00010  -0.00008
  86        6D-1       -0.00009  -0.00007  -0.00007   0.00034   0.00002
  87        6D+2        0.00264   0.00655   0.00676   0.00391   0.00710
  88        6D-2        0.00699   0.00699   0.00757  -0.00461  -0.00259
  89        7D 0       -0.00988   0.02318   0.01854   0.02186   0.07357
  90        7D+1        0.00010   0.00080   0.00041   0.00012   0.00138
  91        7D-1        0.00031   0.00066   0.00002   0.00084  -0.00016
  92        7D+2        0.02539  -0.01003  -0.03021   0.00120  -0.02795
  93        7D-2       -0.00305  -0.02918   0.00578   0.01468  -0.00128
                          31        32        33        34        35
                           V         V         V         V         V
     Eigenvalues --     0.45370   0.53072   0.55502   0.57663   0.61502
   1 1   C  1S         -0.00127  -0.00853  -0.00007  -0.00479  -0.00010
   2        2S         -0.00229  -0.01714  -0.00013  -0.00877  -0.00020
   3        2PX        -0.00340  -0.08779   0.00887  -0.28021  -0.00073
   4        2PY         0.00255  -0.22803  -0.00175   0.11759  -0.00995
   5        2PZ        -0.00335   0.00895   0.04219  -0.00201  -0.26471
   6        3S          0.00450   0.11797  -0.00079   0.08213   0.00168
   7        3PX        -0.00753  -0.36464   0.01727  -0.50419  -0.00263
   8        3PY         0.00877  -0.78323  -0.00162   0.19235  -0.03044
   9        3PZ         0.10821   0.03070   0.15659  -0.00106  -0.79356
  10        4S          0.08705   0.33408   0.04794  -2.00686  -0.00272
  11        4PX        -0.01783   0.47506  -0.08555   3.59316   0.01072
  12        4PY         0.09022   1.79119   0.03039  -1.51809   0.12834
  13        4PZ         2.18571  -0.07038  -0.20756   0.03355   3.46366
  14        5S          0.00253   0.82652   0.01761   0.34497   0.02135
  15        5PX        -0.03222  -0.59316  -0.00069  -0.09585  -0.00187
  16        5PY        -0.00181  -0.39663   0.00484  -0.16330   0.05184
  17        5PZ        -0.77342   0.01321  -0.23784  -0.00209   1.30912
  18        6D 0       -0.00100  -0.00290  -0.00082   0.00642   0.00031
  19        6D+1       -0.02032  -0.00024  -0.00493   0.00017   0.01471
  20        6D-1        0.01127   0.00019   0.00929   0.00089  -0.00727
  21        6D+2       -0.00088   0.00983  -0.00053   0.00628   0.00033
  22        6D-2        0.00013   0.00255   0.00025  -0.00683   0.00050
  23        7D 0        0.00721  -0.08044  -0.06472   0.67668   0.00081
  24        7D+1        0.08242  -0.00200   0.40023   0.00975   0.48176
  25        7D-1       -0.15843  -0.00171   0.78324   0.05182  -0.06109
  26        7D+2        0.00448   0.06132  -0.01319  -0.32251   0.00621
  27        7D-2        0.01233  -0.02917   0.00968   0.29507   0.01685
  28 2   H  1S          0.06958  -0.01093   0.02625   0.05250  -0.08614
  29        2S          1.49985  -0.04776   0.21987   0.05494   0.23448
  30        3S         -0.67308   0.25586  -0.61967  -2.23840   3.04336
  31        4PX         0.01156  -0.00206  -0.01044   0.03283  -0.05042
  32        4PY        -0.00179   0.00290  -0.03847  -0.02257   0.01573
  33        4PZ         0.09145   0.01256   0.00837  -0.05057   0.08478
  34 3   H  1S         -0.07575  -0.01165  -0.03041   0.05102   0.08597
  35        2S         -1.58098  -0.04783  -0.23773   0.04093  -0.23464
  36        3S          0.82768   0.27442   0.71672  -2.20697  -3.03704
  37        4PX        -0.00953  -0.00254   0.00883   0.03348   0.05123
  38        4PY         0.00794   0.00179   0.04001  -0.01637  -0.00972
  39        4PZ         0.09260  -0.01332   0.00275   0.05260   0.08500
  40 4   N  1S          0.00076   0.00744  -0.00064   0.02222   0.00007
  41        2S          0.00119   0.01440  -0.00117   0.03983   0.00013
  42        2PX        -0.00593   0.06495   0.00150  -0.09255   0.00082
  43        2PY        -0.00166   0.04359  -0.00374   0.07896   0.00128
  44        2PZ        -0.09852  -0.00143  -0.01302  -0.00246   0.03113
  45        3S         -0.00051  -0.10054   0.00808  -0.23878  -0.00078
  46        3PX        -0.00694   0.13495  -0.00082  -0.01750   0.00226
  47        3PY        -0.00316   0.11138  -0.00613   0.09114   0.00468
  48        3PZ        -0.13976  -0.00370  -0.04279  -0.00439   0.11613
  49        4S         -0.04086  -0.06372  -0.10873   3.39782  -0.00687
  50        4PX        -0.03541  -0.58218   0.00385   0.51225  -0.00058
  51        4PY         0.00884  -0.33019   0.04066  -1.06104  -0.01001
  52        4PZ        -0.48657   0.01135   0.13795   0.03020  -0.30535
  53        5S         -0.00718   0.08714   0.11404   5.13164   0.06662
  54        5PX        -0.08722  -1.00267  -0.09986   0.74354  -0.04383
  55        5PY        -0.00485  -0.16311  -0.04004  -1.50586  -0.05494
  56        5PZ        -0.14751   0.00878  -0.37299   0.03050  -1.05904
  57        6D 0        0.00010   0.00069  -0.00049  -0.00144  -0.00004
  58        6D+1        0.01154   0.00017   0.00926   0.00080  -0.00396
  59        6D-1       -0.00890   0.00002   0.00955   0.00069   0.00208
  60        6D+2        0.00038   0.00027  -0.00080   0.01467  -0.00020
  61        6D-2       -0.00027  -0.00466   0.00095  -0.01963  -0.00008
  62        7D 0        0.00063  -0.03258   0.00187  -0.16150  -0.00184
  63        7D+1        0.07258   0.00030   0.06056   0.00374  -0.05100
  64        7D-1       -0.04929  -0.00418   0.08108  -0.00083   0.04289
  65        7D+2        0.00188  -0.08866  -0.00560   0.11389  -0.00213
  66        7D-2        0.00145   0.03688   0.00173  -0.11045  -0.00116
  67 5   N  1S          0.00020  -0.01639   0.00032  -0.00906  -0.00018
  68        2S          0.00043  -0.02876   0.00061  -0.01616  -0.00029
  69        2PX        -0.00144   0.04953  -0.00369   0.05409  -0.00005
  70        2PY        -0.00181   0.00279   0.00164  -0.04739   0.00010
  71        2PZ        -0.00507   0.00031   0.03507   0.00253  -0.00402
  72        3S         -0.00332   0.13971  -0.00549   0.10982   0.00087
  73        3PX        -0.00322   0.02416  -0.00365   0.02429  -0.00105
  74        3PY        -0.00282  -0.01793   0.00478  -0.10933   0.00009
  75        3PZ        -0.03915   0.00130   0.09000   0.00626   0.00093
  76        4S          0.00894  -0.34317   0.04330  -0.67405   0.00240
  77        4PX         0.00448  -0.04238   0.01916  -0.32004   0.00426
  78        4PY        -0.00585  -0.06870   0.00891  -0.21126   0.00247
  79        4PZ         0.16849   0.00091  -0.11043   0.00033   0.02747
  80        5S         -0.11946  -1.53226  -0.19440  -2.59972  -0.09449
  81        5PX        -0.02345  -0.19141  -0.05054  -0.92066  -0.02359
  82        5PY        -0.02614  -0.22631  -0.02830   0.08721  -0.01409
  83        5PZ         0.07302   0.00311   0.40477   0.00512   0.13893
  84        6D 0        0.00010   0.00352   0.00004   0.00216   0.00009
  85        6D+1       -0.00418   0.00002   0.00016  -0.00011   0.00099
  86        6D-1       -0.00287   0.00010  -0.00128  -0.00005  -0.00018
  87        6D+2       -0.00022  -0.00251   0.00014  -0.00475  -0.00004
  88        6D-2        0.00009  -0.00113  -0.00026   0.00628  -0.00007
  89        7D 0        0.00047   0.04488  -0.00340   0.04365   0.00210
  90        7D+1        0.05161   0.00024  -0.12328  -0.00394   0.05559
  91        7D-1       -0.07431   0.00103   0.00995  -0.00049  -0.03388
  92        7D+2        0.00253  -0.03869   0.00504  -0.11025   0.00134
  93        7D-2        0.00159  -0.03290  -0.00130  -0.00621   0.00129
                          36        37        38        39        40
                           V         V         V         V         V
     Eigenvalues --     0.66950   0.74062   0.77929   0.78645   0.78920
   1 1   C  1S          0.07395  -0.06422  -0.01589  -0.00073   0.05436
   2        2S          0.13787  -0.13152  -0.03312  -0.00140   0.10067
   3        2PX         0.02426   0.00748   0.04992   0.00124   0.03381
   4        2PY         0.01793   0.03578   0.01914   0.00079  -0.03351
   5        2PZ        -0.00044  -0.00102  -0.00091   0.01593   0.00050
   6        3S         -0.97261   1.24601   0.19475   0.00903  -0.80651
   7        3PX        -0.42366  -0.22905   0.31784   0.01209  -0.34045
   8        3PY         0.20311   0.25826   0.09884   0.00752   0.21146
   9        3PZ        -0.00432  -0.00647  -0.00958   0.21882  -0.00541
  10        4S          5.15110  -2.04937   0.38280  -0.04197   6.87723
  11        4PX        -1.11581  -1.10913  -0.14275   0.00943  -1.81082
  12        4PY         0.28734   0.13494  -0.21129  -0.00497   1.51640
  13        4PZ        -0.00536  -0.00252   0.00553   0.16108  -0.02356
  14        5S          2.58251  -1.40038  -1.03546  -0.03731   1.67898
  15        5PX        -0.36647   0.19903  -0.21528  -0.00507  -0.25511
  16        5PY         0.32104  -0.21626  -0.66024  -0.00025   0.06864
  17        5PZ        -0.00862   0.00725  -0.00050   0.62652   0.01029
  18        6D 0       -0.00275  -0.01496  -0.00159   0.00014  -0.01202
  19        6D+1        0.00033   0.00023  -0.00046   0.00374   0.00051
  20        6D-1        0.00041  -0.00053   0.00020  -0.00129  -0.00012
  21        6D+2        0.01414   0.00973   0.01031   0.00014   0.01386
  22        6D-2       -0.01081  -0.01041   0.00687   0.00049  -0.02013
  23        7D 0       -0.09887  -0.58372   0.42423   0.03310  -0.16938
  24        7D+1       -0.00893  -0.00064  -0.02474   0.80210   0.02394
  25        7D-1        0.01202  -0.02444   0.05124  -0.44670  -0.00581
  26        7D+2        0.60833   0.37041   0.39610   0.02486  -0.00782
  27        7D-2        0.10623  -0.00817   0.04708   0.02832  -0.54770
  28 2   H  1S          0.06841  -0.01382  -0.02641  -0.00916   0.01756
  29        2S          0.11357   0.66943  -0.69912   0.73408  -0.35815
  30        3S         -1.21546   0.23062   0.48343   0.03287  -0.57759
  31        4PX         0.05089  -0.04385   0.02935  -0.00162   0.01473
  32        4PY        -0.00698   0.03315   0.02021   0.00961  -0.02352
  33        4PZ        -0.05713   0.10041  -0.01872   0.07682  -0.05452
  34 3   H  1S          0.06853  -0.01363  -0.02732   0.00716   0.01753
  35        2S          0.11332   0.66596  -0.65993  -0.76419  -0.37039
  36        3S         -1.21368   0.22771   0.48830   0.01635  -0.59955
  37        4PX         0.05117  -0.04417   0.02865   0.00277   0.01552
  38        4PY        -0.00364   0.02588   0.02110  -0.00214  -0.01952
  39        4PZ         0.05695  -0.10183   0.01260   0.07724   0.05677
  40 4   N  1S         -0.00560   0.01282   0.00305   0.00014  -0.00373
  41        2S         -0.01415   0.02242   0.00915   0.00036  -0.00920
  42        2PX         0.07609   0.06957   0.09731   0.00088   0.15042
  43        2PY        -0.04522  -0.06264   0.17923   0.00048  -0.03353
  44        2PZ         0.00051   0.00122  -0.00057  -0.18243  -0.00149
  45        3S          0.27390  -0.07656  -0.21026  -0.00597   0.08398
  46        3PX         0.20283   0.22026   0.32455   0.00606   0.23057
  47        3PY        -0.05485  -0.23150   0.55344   0.00060  -0.10264
  48        3PZ        -0.00040   0.00502  -0.00076  -0.62550  -0.00560
  49        4S         -3.61479  -0.94281   1.79443   0.04658  -1.01728
  50        4PX        -0.64587  -1.44500  -1.76863   0.00224  -4.64667
  51        4PY         1.99138   1.00086  -1.59021   0.00921  -0.20148
  52        4PZ        -0.05035  -0.02025  -0.00821   1.86145   0.02974
  53        5S          1.14632   0.91031  -3.50174  -0.11309  -1.20918
  54        5PX        -1.80583   2.26203   2.49105   0.06746  -1.15531
  55        5PY        -0.92172  -0.65117   1.96123   0.02687  -0.01328
  56        5PZ         0.03027   0.01133  -0.02037  -1.34597  -0.01753
  57        6D 0       -0.00617  -0.01551   0.01657  -0.00009  -0.00010
  58        6D+1        0.00044   0.00042   0.00142  -0.02089   0.00027
  59        6D-1       -0.00079  -0.00070   0.00019   0.01426   0.00055
  60        6D+2       -0.01885  -0.00040  -0.00792  -0.00073   0.01218
  61        6D-2       -0.01338  -0.02569  -0.02239  -0.00088  -0.01821
  62        7D 0        0.15648  -0.11246   0.01136  -0.00150  -0.03268
  63        7D+1       -0.00266   0.00166  -0.00331   0.07293  -0.01263
  64        7D-1        0.00137  -0.00514   0.00469   0.07712  -0.00118
  65        7D+2       -0.15517   0.00603   0.14884   0.00242  -0.06330
  66        7D-2        0.08514  -0.03052   0.11878   0.00033   0.52372
  67 5   N  1S         -0.00629   0.01098   0.00642   0.00000   0.01321
  68        2S         -0.00592   0.02100   0.01371   0.00008   0.02137
  69        2PX        -0.11051   0.05175   0.03244  -0.00104   0.16278
  70        2PY         0.00076  -0.04247   0.05833  -0.00238   0.04147
  71        2PZ        -0.00008   0.00014   0.00257  -0.12665  -0.00117
  72        3S         -0.12943  -0.11729  -0.04238  -0.00173   0.05337
  73        3PX        -0.30158   0.12833  -0.09584  -0.00735   0.40890
  74        3PY        -0.03015  -0.15619   0.06089  -0.01070   0.07464
  75        3PZ         0.00031   0.00112   0.01067  -0.41058  -0.00224
  76        4S          1.65982  -0.27233  -1.56313  -0.00848  -2.71752
  77        4PX         1.48576  -0.28771  -0.91665   0.00799  -2.67779
  78        4PY         0.46928  -0.06294  -0.72383   0.01262  -1.55778
  79        4PZ        -0.01051   0.00548   0.00560   0.43886   0.03473
  80        5S         -4.49629   1.44160   4.25223   0.14261  -1.98698
  81        5PX        -1.70286  -0.03176   0.79387   0.02464   0.11954
  82        5PY        -0.66767   0.53750   0.69656   0.01521  -0.04151
  83        5PZ         0.01079  -0.01362  -0.01282  -0.00930   0.00405
  84        6D 0        0.01103  -0.00026   0.00088   0.00012  -0.01275
  85        6D+1        0.00037  -0.00001  -0.00009   0.00336  -0.00039
  86        6D-1        0.00018  -0.00017  -0.00007   0.00175  -0.00026
  87        6D+2       -0.01275  -0.00600  -0.00093  -0.00017   0.00943
  88        6D-2       -0.01569   0.00029  -0.00278  -0.00027   0.01972
  89        7D 0       -0.17494  -0.02419   0.19182   0.00144   0.03647
  90        7D+1        0.00211   0.00365   0.00522  -0.06488   0.00504
  91        7D-1       -0.00469  -0.00254   0.00187   0.08062  -0.00057
  92        7D+2        0.15077  -0.06654  -0.12349  -0.00327  -0.13676
  93        7D-2       -0.04791  -0.11179  -0.25647  -0.00520  -0.25701
                          41        42        43        44        45
                           V         V         V         V         V
     Eigenvalues --     0.79988   0.83369   0.86757   0.93981   0.97500
   1 1   C  1S         -0.00805   0.00044  -0.00113   0.01065   0.00044
   2        2S         -0.01106   0.00088  -0.00799   0.02036   0.00086
   3        2PX        -0.05157  -0.00037   0.02514  -0.01009  -0.00105
   4        2PY         0.01307  -0.00018  -0.02025   0.01526  -0.00126
   5        2PZ        -0.00015  -0.00575   0.00027   0.00229  -0.06497
   6        3S          0.16745  -0.00601   0.05725   0.13402   0.00801
   7        3PX         0.04039  -0.00133  -0.21450  -0.23520  -0.01621
   8        3PY        -0.12694  -0.00007   0.03000   0.20492  -0.00536
   9        3PZ         0.00363  -0.03449  -0.00264   0.00748  -0.48107
  10        4S         -3.52838   0.00190   3.34305  -2.71358  -0.15733
  11        4PX         1.31848   0.00917  -1.38972  -0.12349  -0.00967
  12        4PY        -0.81664   0.00183   1.05699   0.72903   0.00926
  13        4PZ         0.00970   0.05563  -0.01691  -0.02413  -0.82047
  14        5S          0.18988   0.00367   0.28861  -1.54070  -0.10665
  15        5PX         0.08067   0.00391  -0.16498   0.83448   0.05996
  16        5PY        -0.05205   0.00067  -0.25709  -0.68341  -0.02475
  17        5PZ         0.00085   0.02854   0.01059   0.00196   0.39877
  18        6D 0        0.00895  -0.00004  -0.01064  -0.01783  -0.00092
  19        6D+1       -0.00014   0.00683   0.00030   0.00104  -0.02024
  20        6D-1        0.00047   0.00078  -0.00024  -0.00048  -0.00177
  21        6D+2       -0.00255   0.00006   0.00978   0.00555   0.00024
  22        6D-2        0.00915   0.00018  -0.01335  -0.00482  -0.00097
  23        7D 0       -0.11508  -0.01266  -0.02828  -1.13574  -0.07564
  24        7D+1       -0.01922  -0.22602   0.01740   0.01316  -0.95177
  25        7D-1       -0.00297   0.19283   0.00167  -0.08265   0.24898
  26        7D+2        0.23769  -0.01099  -0.05848  -0.68508  -0.04688
  27        7D-2        0.66188  -0.00387  -0.69200   0.18805  -0.02268
  28 2   H  1S          0.01909  -0.01375   0.00194   0.01056   0.01558
  29        2S          0.60754  -0.27316  -0.31067   1.67332  -1.21567
  30        3S         -0.73968   0.28057   0.13918  -0.65009   0.38182
  31        4PX        -0.00758  -0.04309   0.01148  -0.03725   0.13442
  32        4PY         0.02027  -0.02184  -0.01124   0.01178   0.05848
  33        4PZ         0.02278  -0.03472  -0.00058   0.06813  -0.03651
  34 3   H  1S          0.01929   0.01441   0.00176   0.01163  -0.01480
  35        2S          0.60934   0.28382  -0.30426   1.62519   1.40112
  36        3S         -0.72916  -0.30809   0.11875  -0.60758  -0.46260
  37        4PX        -0.00802   0.04297   0.01128  -0.02644  -0.13838
  38        4PY         0.01838   0.01950  -0.01062   0.01828  -0.05929
  39        4PZ        -0.02377  -0.03604   0.00061  -0.06897  -0.03925
  40 4   N  1S          0.00036  -0.00011  -0.00709  -0.04458  -0.00322
  41        2S          0.00090  -0.00017  -0.01611  -0.08522  -0.00628
  42        2PX        -0.02507   0.00059   0.04431   0.01563  -0.00026
  43        2PY         0.05686   0.00343  -0.07744   0.07631   0.00328
  44        2PZ        -0.00220   0.09957   0.00275  -0.00356  -0.01656
  45        3S         -0.09079  -0.00024   0.20974   0.56771   0.04548
  46        3PX        -0.17072   0.00127   0.12382   0.08494  -0.00053
  47        3PY         0.04135   0.01175  -0.15234   0.41466   0.01721
  48        3PZ        -0.00370   0.33789   0.00647  -0.01123  -0.17966
  49        4S          2.82537   0.01919  -2.63643  -0.84761  -0.10326
  50        4PX         1.22250  -0.01296  -2.10352  -0.69399  -0.01032
  51        4PY        -0.36547  -0.05264   0.83750  -1.75323  -0.07632
  52        4PZ         0.01276  -1.23212  -0.02811   0.04879   0.24115
  53        5S          4.23992   0.07221  -3.10879   8.13179   0.54951
  54        5PX        -0.35035  -0.01621   0.92825  -0.38168  -0.03679
  55        5PY        -1.49525   0.01163   0.43706  -0.78835  -0.07219
  56        5PZ         0.03797   0.90152  -0.00761   0.02608  -0.21668
  57        6D 0       -0.00472   0.00045  -0.00239  -0.00459  -0.00085
  58        6D+1       -0.00032   0.00313   0.00032  -0.00142   0.02393
  59        6D-1       -0.00081  -0.00930   0.00036  -0.00056   0.00726
  60        6D+2       -0.02255   0.00030   0.01791   0.01155   0.00062
  61        6D-2        0.01079   0.00008  -0.01269   0.00200   0.00096
  62        7D 0       -0.32119  -0.00040   0.18199  -0.04599  -0.02590
  63        7D+1       -0.00067   0.07941   0.00047  -0.01455   0.18488
  64        7D-1       -0.00993   0.00585   0.01180  -0.03192   0.45526
  65        7D+2        0.20912  -0.00129   0.09307  -0.02126  -0.01433
  66        7D-2        0.04283   0.00383   0.00593  -0.03180  -0.00007
  67 5   N  1S          0.00318   0.00012  -0.00762   0.02083   0.00115
  68        2S          0.00359   0.00021  -0.01453   0.04019   0.00222
  69        2PX         0.01877   0.00117  -0.10436  -0.04993  -0.00280
  70        2PY         0.20021  -0.00619   0.10817  -0.01764  -0.00083
  71        2PZ        -0.00581  -0.21596  -0.00397  -0.00177   0.04213
  72        3S          0.07531  -0.00033   0.08407  -0.26500  -0.01604
  73        3PX         0.08345   0.00343  -0.41774  -0.14786  -0.00539
  74        3PY         0.63675  -0.02263   0.44524  -0.04983  -0.00274
  75        3PZ        -0.01852  -0.76933  -0.01576  -0.00055   0.05879
  76        4S         -0.49724  -0.01799  -0.33312  -0.54041  -0.00246
  77        4PX        -0.73473  -0.02174   0.98433  -0.26394  -0.00155
  78        4PY        -1.46057   0.04511  -1.25623   0.00326   0.02012
  79        4PZ         0.04027   1.77604   0.04292  -0.01722   0.12437
  80        5S         -2.97012  -0.06072   2.18166  -4.19984  -0.28374
  81        5PX        -0.66229  -0.01086  -0.07893  -1.26945  -0.08236
  82        5PY         0.54156  -0.04148   1.06974  -0.79558  -0.05887
  83        5PZ        -0.01740  -1.12299  -0.03326   0.02974  -0.11446
  84        6D 0       -0.01055   0.00033   0.00304   0.00225   0.00035
  85        6D+1       -0.00042  -0.01504  -0.00028   0.00115  -0.01515
  86        6D-1       -0.00036  -0.00872  -0.00042   0.00065  -0.00625
  87        6D+2        0.00386   0.00040  -0.01961   0.00304   0.00036
  88        6D-2        0.01693  -0.00035   0.00669  -0.00457  -0.00065
  89        7D 0       -0.02983   0.00566   0.00336   0.09444  -0.00033
  90        7D+1        0.00436  -0.01641  -0.00525   0.02915  -0.52488
  91        7D-1       -0.00109  -0.10215  -0.00525   0.00623  -0.02412
  92        7D+2        0.04444   0.00255  -0.22714  -0.04935  -0.00096
  93        7D-2       -0.12544  -0.00199   0.15211   0.05165  -0.00858
                          46        47        48        49        50
                           V         V         V         V         V
     Eigenvalues --     1.01862   1.04297   1.06520   1.12752   1.23853
   1 1   C  1S          0.00032  -0.00425  -0.00002  -0.00629  -0.00038
   2        2S          0.00057  -0.00441   0.00009  -0.02376  -0.00619
   3        2PX        -0.00021  -0.01130  -0.00105   0.09126   0.11067
   4        2PY         0.00222  -0.00943   0.00027  -0.01993  -0.05401
   5        2PZ         0.04686   0.00079   0.00323   0.00005   0.00133
   6        3S          0.00146  -0.18345  -0.00645   0.47779   0.56511
   7        3PX        -0.00408  -0.04227   0.00077   0.06580   0.54043
   8        3PY         0.02713  -0.02039  -0.00286   0.07121  -0.31440
   9        3PZ         0.65634   0.00545  -0.01086  -0.00199   0.00835
  10        4S         -0.03042   0.76426   0.02191  -0.57563  -7.71174
  11        4PX        -0.00583  -0.50706  -0.00251   0.20637   3.67804
  12        4PY         0.10464   0.43023   0.04007  -0.30134  -1.71609
  13        4PZ         2.38754  -0.00002   1.15086   0.01595   0.03809
  14        5S         -0.01552  -2.25769   0.00899  -2.82393  -0.74572
  15        5PX         0.01361   0.95717  -0.00009   0.81241  -0.15591
  16        5PY        -0.01969  -0.32875   0.00789  -0.37413  -0.05200
  17        5PZ        -0.29024   0.00533   0.12619   0.01081  -0.00035
  18        6D 0        0.00001   0.00204   0.00055  -0.02241   0.00964
  19        6D+1        0.00700   0.00050  -0.00647   0.00039  -0.00002
  20        6D-1       -0.01016   0.00001  -0.00412  -0.00046   0.00036
  21        6D+2        0.00053  -0.00456  -0.00012   0.02077  -0.00450
  22        6D-2        0.00008  -0.00578   0.00002  -0.02092   0.00117
  23        7D 0        0.02185  -0.06543  -0.00497   0.33194   0.48730
  24        7D+1        1.40070   0.03186  -0.23315  -0.01636  -0.03056
  25        7D-1       -0.90751   0.00567   0.15600   0.01447  -0.01383
  26        7D+2        0.02220   0.38433   0.00513  -0.12490  -1.02506
  27        7D-2        0.04832  -0.61905  -0.01369   0.47029   1.27915
  28 2   H  1S         -0.01317  -0.00446   0.01951   0.00373   0.03300
  29        2S          2.39869  -0.25548   0.15709  -0.22509   0.46855
  30        3S         -0.06434  -0.01901   0.50281   0.27762  -0.26613
  31        4PX        -0.08581  -0.02651   0.07982  -0.03696   0.01822
  32        4PY         0.14365   0.01838  -0.03735   0.00388  -0.02305
  33        4PZ         0.08653  -0.00755   0.03321  -0.01444   0.01092
  34 3   H  1S          0.01320  -0.00373  -0.01896   0.00361   0.03309
  35        2S         -2.32910  -0.28860  -0.17199  -0.22297   0.46147
  36        3S          0.03756  -0.01571  -0.50633   0.26605  -0.25877
  37        4PX         0.08652  -0.02236  -0.07806  -0.03411   0.01814
  38        4PY        -0.13793   0.01767   0.03890   0.00471  -0.02312
  39        4PZ         0.09314   0.00662   0.03186   0.01388  -0.00926
  40 4   N  1S         -0.00084  -0.04456   0.00018  -0.03461   0.01845
  41        2S         -0.00168  -0.08959   0.00038  -0.07251   0.04195
  42        2PX         0.00041  -0.03798  -0.00112   0.10031   0.06696
  43        2PY         0.00489   0.05945   0.00155  -0.00122  -0.04868
  44        2PZ         0.12787  -0.00124   0.02489  -0.00038   0.00157
  45        3S          0.01292   0.72979  -0.00308   0.57335  -0.59302
  46        3PX         0.00375  -0.27451  -0.00539   0.38961   0.46077
  47        3PY         0.02175   0.32361   0.00692  -0.08773  -0.28549
  48        3PZ         0.52822  -0.00586   0.12560   0.00126   0.00742
  49        4S         -0.02485  -3.43307  -0.02163   0.76434   7.76297
  50        4PX        -0.02933   0.43991   0.01031  -1.51470   1.80904
  51        4PY        -0.04266  -0.26266  -0.02433  -0.31530  -1.91336
  52        4PZ        -0.52866   0.00946  -0.94186   0.00100   0.04753
  53        5S          0.14041   5.14644   0.04635  -2.95180   0.63624
  54        5PX        -0.01782  -0.22962  -0.02314   2.64259   1.50664
  55        5PY        -0.01659  -0.53552  -0.01190   0.91795  -0.26468
  56        5PZ         0.05501   0.01331   0.01720  -0.02458   0.00608
  57        6D 0       -0.00059  -0.00625   0.00033  -0.00289   0.01835
  58        6D+1       -0.00824  -0.00037  -0.00639   0.00034  -0.00010
  59        6D-1        0.01223   0.00004  -0.00727  -0.00027   0.00066
  60        6D+2       -0.00029   0.01135   0.00012  -0.00109  -0.00856
  61        6D-2       -0.00040   0.00603  -0.00009  -0.01150   0.00649
  62        7D 0       -0.01943  -0.21379  -0.00184  -0.15406   0.09737
  63        7D+1        0.20107   0.00425  -0.38974  -0.01009   0.00196
  64        7D-1        0.33148  -0.01158   0.01591  -0.00646   0.01234
  65        7D+2       -0.00923   0.04915   0.00006   0.04497   0.23486
  66        7D-2        0.00839  -0.07908  -0.01217   0.31658  -0.08403
  67 5   N  1S          0.00043  -0.02804   0.00027  -0.09198  -0.00686
  68        2S          0.00086  -0.05689   0.00054  -0.18723  -0.01394
  69        2PX        -0.00106  -0.00700   0.00023  -0.00537  -0.01140
  70        2PY         0.00145  -0.04432  -0.00091  -0.01363   0.00315
  71        2PZ         0.04372   0.00081  -0.03786   0.00013   0.00039
  72        3S         -0.00555   0.41149  -0.00435   1.53442   0.16716
  73        3PX        -0.00456   0.04648   0.00183  -0.14273  -0.13047
  74        3PY         0.00292  -0.11083  -0.00237  -0.11279  -0.04332
  75        3PZ         0.11812   0.00238  -0.10718   0.00217   0.00226
  76        4S         -0.01836  -0.21657   0.01517  -3.83382  -1.26476
  77        4PX        -0.00781   0.23343   0.00079  -0.61942  -0.45622
  78        4PY        -0.00712   0.63352   0.01046  -0.39602  -0.25977
[...]
  79        4PZ         0.00000   0.00000   0.00207   0.00119   0.00000
  80        5S          0.00001  -0.00001   0.00000   0.00000   0.00001
  81        5PX         0.00000   0.00001   0.00000   0.00000   0.00014
  82        5PY         0.00001   0.00000   0.00000   0.00000   0.00016
  83        5PZ         0.00000   0.00000   0.00007   0.00003   0.00000
  84        6D 0        0.00000   0.00000   0.00000   0.00000   0.00000
  85        6D+1        0.00000   0.00000   0.00002   0.00002   0.00000
  86        6D-1        0.00000   0.00000   0.00001   0.00000   0.00000
  87        6D+2        0.00000   0.00000   0.00000   0.00000   0.00006
  88        6D-2        0.00001   0.00000   0.00000   0.00000   0.00001
  89        7D 0        0.00000   0.00002   0.00000   0.00000   0.00002
  90        7D+1        0.00000   0.00000   0.00023   0.00030   0.00000
  91        7D-1        0.00000   0.00000   0.00013  -0.00001   0.00000
  92        7D+2        0.00001   0.00000   0.00000   0.00000   0.00051
  93        7D-2        0.00001  -0.00001   0.00000   0.00000   0.00007
                          66        67        68        69        70
  66        7D-2        0.00382
  67 5   N  1S         -0.00025   0.65445
  68        2S         -0.00042   0.51025   0.51764
  69        2PX         0.00207   0.00000   0.00000   0.11873
  70        2PY        -0.00048   0.00000   0.00000   0.00000   0.10990
  71        2PZ         0.00000   0.00000   0.00000   0.00000   0.00000
  72        3S          0.00387  -0.04621  -0.09280   0.00000   0.00000
  73        3PX         0.00598   0.00000   0.00000   0.10927   0.00000
  74        3PY        -0.00030   0.00000   0.00000   0.00000   0.10248
  75        3PZ         0.00000   0.00000   0.00000   0.00000   0.00000
  76        4S          0.00163  -0.02393  -0.04182   0.00000   0.00000
  77        4PX         0.00146   0.00000   0.00000   0.02882   0.00000
  78        4PY         0.00274   0.00000   0.00000   0.00000   0.03112
  79        4PZ         0.00000   0.00000   0.00000   0.00000   0.00000
  80        5S          0.00031   0.00209   0.00264   0.00000   0.00000
  81        5PX        -0.00017   0.00000   0.00000   0.00210   0.00000
  82        5PY         0.00033   0.00000   0.00000   0.00000   0.00168
  83        5PZ         0.00000   0.00000   0.00000   0.00000   0.00000
  84        6D 0        0.00000   0.00000   0.00000   0.00000   0.00000
  85        6D+1        0.00000   0.00000   0.00000   0.00000   0.00000
  86        6D-1        0.00000   0.00000   0.00000   0.00000   0.00000
  87        6D+2        0.00002   0.00000   0.00000   0.00000   0.00000
  88        6D-2        0.00001   0.00000   0.00000   0.00000   0.00000
  89        7D 0       -0.00002   0.00000   0.00000   0.00000   0.00000
  90        7D+1        0.00000   0.00000   0.00000   0.00000   0.00000
  91        7D-1        0.00000   0.00000   0.00000   0.00000   0.00000
  92        7D+2        0.00016   0.00000   0.00000   0.00000   0.00000
  93        7D-2        0.00000   0.00000   0.00000   0.00000   0.00000
                          71        72        73        74        75
  71        2PZ         0.05219
  72        3S          0.00000   0.68408
  73        3PX         0.00000   0.00000   0.26184
  74        3PY         0.00000   0.00000   0.00000   0.24868
  75        3PZ         0.04997   0.00000   0.00000   0.00000   0.12445
  76        4S          0.00000   0.49100   0.00000   0.00000   0.00000
  77        4PX         0.00000   0.00000   0.13061   0.00000   0.00000
  78        4PY         0.00000   0.00000   0.00000   0.14314   0.00000
  79        4PZ         0.01382   0.00000   0.00000   0.00000   0.06537
  80        5S          0.00000  -0.02219   0.00000   0.00000   0.00000
  81        5PX         0.00000   0.00000   0.01224   0.00000   0.00000
  82        5PY         0.00000   0.00000   0.00000   0.01010   0.00000
  83        5PZ         0.00037   0.00000   0.00000   0.00000   0.00230
  84        6D 0        0.00000   0.00000   0.00000   0.00000   0.00000
  85        6D+1        0.00000   0.00000   0.00000   0.00000   0.00000
  86        6D-1        0.00000   0.00000   0.00000   0.00000   0.00000
  87        6D+2        0.00000   0.00000   0.00000   0.00000   0.00000
  88        6D-2        0.00000   0.00000   0.00000   0.00000   0.00000
  89        7D 0        0.00000   0.00000   0.00000   0.00000   0.00000
  90        7D+1        0.00000   0.00000   0.00000   0.00000   0.00000
  91        7D-1        0.00000   0.00000   0.00000   0.00000   0.00000
  92        7D+2        0.00000   0.00000   0.00000   0.00000   0.00000
  93        7D-2        0.00000   0.00000   0.00000   0.00000   0.00000
                          76        77        78        79        80
  76        4S          0.64283
  77        4PX         0.00000   0.16958
  78        4PY         0.00000   0.00000   0.20853
  79        4PZ         0.00000   0.00000   0.00000   0.08335
  80        5S         -0.03190   0.00000   0.00000   0.00000   0.06507
  81        5PX         0.00000   0.03391   0.00000   0.00000   0.00000
  82        5PY         0.00000   0.00000   0.02810   0.00000   0.00000
  83        5PZ         0.00000   0.00000   0.00000   0.00549   0.00000
  84        6D 0        0.00000   0.00000   0.00000   0.00000   0.00000
  85        6D+1        0.00000   0.00000   0.00000   0.00000   0.00000
  86        6D-1        0.00000   0.00000   0.00000   0.00000   0.00000
  87        6D+2        0.00000   0.00000   0.00000   0.00000   0.00000
  88        6D-2        0.00000   0.00000   0.00000   0.00000   0.00000
  89        7D 0        0.00000   0.00000   0.00000   0.00000   0.00000
  90        7D+1        0.00000   0.00000   0.00000   0.00000   0.00000
  91        7D-1        0.00000   0.00000   0.00000   0.00000   0.00000
  92        7D+2        0.00000   0.00000   0.00000   0.00000   0.00000
  93        7D-2        0.00000   0.00000   0.00000   0.00000   0.00000
                          81        82        83        84        85
  81        5PX         0.02262
  82        5PY         0.00000   0.00914
  83        5PZ         0.00000   0.00000   0.00080
  84        6D 0        0.00000   0.00000   0.00000   0.00011
  85        6D+1        0.00000   0.00000   0.00000   0.00000   0.00011
  86        6D-1        0.00000   0.00000   0.00000   0.00000   0.00000
  87        6D+2        0.00000   0.00000   0.00000   0.00000   0.00000
  88        6D-2        0.00000   0.00000   0.00000   0.00000   0.00000
  89        7D 0        0.00000   0.00000   0.00000   0.00010   0.00000
  90        7D+1        0.00000   0.00000   0.00000   0.00000   0.00019
  91        7D-1        0.00000   0.00000   0.00000   0.00000   0.00000
  92        7D+2        0.00000   0.00000   0.00000   0.00000   0.00000
  93        7D-2        0.00000   0.00000   0.00000   0.00000   0.00000
                          86        87        88        89        90
  86        6D-1        0.00004
  87        6D+2        0.00000   0.00016
  88        6D-2        0.00000   0.00000   0.00027
  89        7D 0        0.00000   0.00000   0.00000   0.00047
  90        7D+1        0.00000   0.00000   0.00000   0.00000   0.00164
  91        7D-1        0.00007   0.00000   0.00000   0.00000   0.00000
  92        7D+2        0.00000   0.00018   0.00000   0.00000   0.00000
  93        7D-2        0.00000   0.00000   0.00026   0.00000   0.00000
                          91        92        93
  91        7D-1        0.00047
  92        7D+2        0.00000   0.00102
  93        7D-2        0.00000   0.00000   0.00137
     Gross orbital populations:
                           1
   1 1   C  1S          1.10381
   2        2S          0.88501
   3        2PX         0.24924
   4        2PY         0.14418
   5        2PZ         0.23953
   6        3S          0.77977
   7        3PX         0.53001
   8        3PY         0.35025
   9        3PZ         0.52946
  10        4S          0.44541
  11        4PX         0.16531
  12        4PY         0.23198
  13        4PZ         0.24148
  14        5S          0.07052
  15        5PX         0.02738
  16        5PY         0.01811
  17        5PZ         0.01621
  18        6D 0        0.00386
  19        6D+1        0.00533
  20        6D-1        0.00124
  21        6D+2        0.00317
  22        6D-2        0.00432
  23        7D 0        0.00370
  24        7D+1        0.03428
  25        7D-1        0.00708
  26        7D+2        0.00911
  27        7D-2        0.00621
  28 2   H  1S          0.27340
  29        2S          0.51030
  30        3S          0.03443
  31        4PX         0.00741
  32        4PY         0.00565
  33        4PZ         0.01469
  34 3   H  1S          0.27346
  35        2S          0.51023
  36        3S          0.03484
  37        4PX         0.00746
  38        4PY         0.00519
  39        4PZ         0.01507
  40 4   N  1S          1.09548
  41        2S          0.89612
  42        2PX         0.24909
  43        2PY         0.23864
  44        2PZ         0.24348
  45        3S          0.91651
  46        3PX         0.58030
  47        3PY         0.55102
  48        3PZ         0.55198
  49        4S          0.67625
  50        4PX         0.16822
  51        4PY         0.35986
  52        4PZ         0.42928
  53        5S         -0.06967
  54        5PX         0.01669
  55        5PY         0.01738
  56        5PZ         0.01617
  57        6D 0        0.00079
  58        6D+1        0.00077
  59        6D-1        0.00042
  60        6D+2        0.00104
  61        6D-2        0.00445
  62        7D 0        0.00213
  63        7D+1        0.01484
  64        7D-1        0.00550
  65        7D+2        0.02015
  66        7D-2        0.03608
  67 5   N  1S          1.09613
  68        2S          0.89558
  69        2PX         0.27654
  70        2PY         0.25279
  71        2PZ         0.12438
  72        3S          1.01040
  73        3PX         0.60804
  74        3PY         0.55152
  75        3PZ         0.29499
  76        4S          0.92287
  77        4PX         0.36216
  78        4PY         0.42975
  79        4PZ         0.26229
  80        5S         -0.06221
  81        5PX         0.04636
  82        5PY         0.04555
  83        5PZ         0.01472
  84        6D 0        0.00071
  85        6D+1        0.00075
  86        6D-1        0.00028
  87        6D+2        0.00097
  88        6D-2        0.00183
  89        7D 0        0.00448
  90        7D+1        0.01331
  91        7D-1        0.00435
  92        7D+2        0.00844
  93        7D-2        0.01191
          Condensed to atoms (all electrons):
               1          2          3          4          5
     1  C    4.984119   0.403931   0.403970   0.500552  -0.186578
     2  H    0.403931   0.517367  -0.041200  -0.023740  -0.010468
     3  H    0.403970  -0.041200   0.518239  -0.025070  -0.009696
     4  N    0.500552  -0.023740  -0.025070   6.202805   0.368429
     5  N   -0.186578  -0.010468  -0.009696   0.368429   7.017207
 Mulliken charges:
               1
     1  C   -0.105994
     2  H    0.154109
     3  H    0.153757
     4  N   -0.022977
     5  N   -0.178895
 Sum of Mulliken charges =   0.00000
 Mulliken charges with hydrogens summed into heavy atoms:
               1
     1  C    0.201872
     4  N   -0.022977
     5  N   -0.178895
 Electronic spatial extent (au):  <R**2>=            136.6670
 Charge=              0.0000 electrons
 Dipole moment (field-independent basis, Debye):
    X=              3.5224    Y=             -0.7717    Z=              0.0166  Tot=              3.6060
 Quadrupole moment (field-independent basis, Debye-Ang):
   XX=            -19.5171   YY=            -18.5114   ZZ=            -16.2829
   XY=             -0.9895   XZ=              0.0251   YZ=              0.0837
 Traceless Quadrupole moment (field-independent basis, Debye-Ang):
   XX=             -1.4133   YY=             -0.4076   ZZ=              1.8209
   XY=             -0.9895   XZ=              0.0251   YZ=              0.0837
 Octapole moment (field-independent basis, Debye-Ang**2):
  XXX=             10.0593  YYY=             -0.6586  ZZZ=              0.0924  XYY=              0.9667
  XXY=             -3.0967  XXZ=              0.1122  XZZ=              2.2564  YZZ=             -1.1450
  YYZ=             -0.0617  XYZ=              0.0409
 Hexadecapole moment (field-independent basis, Debye-Ang**3):
 XXXX=           -146.2359 YYYY=            -31.0852 ZZZZ=            -21.9549 XXXY=             -1.7692
 XXXZ=              0.0361 YYYX=             -1.8368 YYYZ=              0.0966 ZZZX=              0.1032
 ZZZY=              0.1156 XXYY=            -28.1554 XXZZ=            -22.6749 YYZZ=             -8.8860
 XXYZ=              0.1853 YYXZ=             -0.0147 ZZXY=             -1.1308
 N-N= 5.756841733557D+01 E-N=-4.618353201040D+02  KE= 1.477483051966D+02
 Orbital energies and kinetic energies (alpha):
                                 1                 2
   1         O               -14.465565         22.071885
   2         O               -14.412566         22.078285
   3         O               -10.283627         15.962873
   4         O                -1.016529          2.074904
   5         O                -0.797081          1.994680
   6         O                -0.619009          1.636477
   7         O                -0.529977          1.107895
   8         O                -0.460717          1.854102
   9         O                -0.420824          1.771082
  10         O                -0.345793          1.558848
  11         O                -0.212077          1.763123
  12         V                -0.130072          1.575233
  13         V                -0.096224          1.883013
  14         V                 0.013698          0.322396
  15         V                 0.044616          0.232917
  16         V                 0.046986          0.265645
  17         V                 0.069531          0.355207
  18         V                 0.112497          0.555056
  19         V                 0.123580          0.614514
  20         V                 0.148626          0.468570
  21         V                 0.150306          0.427870
  22         V                 0.179670          0.425709
  23         V                 0.201184          0.545081
  24         V                 0.213208          0.810105
  25         V                 0.214500          0.434780
  26         V                 0.233143          0.775817
  27         V                 0.262115          1.979705
  28         V                 0.277791          1.038883
  29         V                 0.308358          1.080412
  30         V                 0.440201          1.361520
  31         V                 0.453701          1.048461
  32         V                 0.530718          1.627201
  33         V                 0.555017          1.152615
  34         V                 0.576633          2.039697
  35         V                 0.615018          1.691553
  36         V                 0.669499          1.854883
  37         V                 0.740622          1.774243
  38         V                 0.779285          1.885477
  39         V                 0.786454          1.864745
  40         V                 0.789199          1.958037
  41         V                 0.799875          1.807703
  42         V                 0.833692          1.975277
  43         V                 0.867570          1.735398
  44         V                 0.939813          1.841637
  45         V                 0.974995          1.718270
  46         V                 1.018623          1.880719
  47         V                 1.042970          2.010866
  48         V                 1.065198          1.692538
  49         V                 1.127521          2.985562
  50         V                 1.238530          2.060910
  51         V                 1.289594          3.205901
  52         V                 1.327681          2.178728
  53         V                 1.367045          2.143379
  54         V                 1.577260          2.266283
  55         V                 1.583991          2.791604
  56         V                 1.665935          2.471855
  57         V                 1.749164          3.136668
  58         V                 1.881669          3.098700
  59         V                 1.888244          3.098084
  60         V                 1.889691          2.605590
  61         V                 1.964472          3.134692
  62         V                 2.102301          3.336298
  63         V                 2.314772          3.581349
  64         V                 2.384762          3.823535
  65         V                 2.608945          4.014133
  66         V                 2.737766          4.240838
  67         V                 2.800504          6.312401
  68         V                 3.074564          6.082730
  69         V                 3.187947          4.923527
  70         V                 3.257108          6.341437
  71         V                 3.338191          5.705383
  72         V                 3.373115          5.701880
  73         V                 3.759964          7.476295
  74         V                 3.768496          8.783193
  75         V                 3.802750          8.007335
  76         V                 3.902067          8.577568
  77         V                 3.931455          8.860945
  78         V                 4.089690          6.360014
  79         V                 4.409326          8.711639
  80         V                 4.767422          7.179830
  81         V                 4.787186          7.349246
  82         V                 4.821649          8.169642
  83         V                 4.827399          7.272919
  84         V                 4.891557          7.348592
  85         V                 4.928217          7.421730
  86         V                 4.966036          7.987957
  87         V                 5.012215          7.476877
  88         V                 5.123153          7.759849
  89         V                 5.216705          8.082584
  90         V                 5.464281          8.641695
  91         V                24.042938         60.419712
  92         V                35.404425         89.012763
  93         V                35.470131         88.974162
 Total kinetic energy from orbitals= 1.477483051966D+02
 1|1|UNPC-DESKTOP-KC5UJLK|SP|RAPFD|6-311+G(2d,p)|C1H2N2|23122|05-Feb-20
 22|0||# apfd/6-311+g(2d,p) geom=connectivity pop=full int=ultrafine||E
 nergy Calculation(GC)||0,1|C,0,-0.00250073,-1.06108316,-0.13168374|H,0
 ,0.91565885,-1.53039854,-0.41738652|H,0,-0.93543418,-1.53617464,-0.352
 64358|N,0,0.01148929,0.07870685,0.4799403|N,0,-0.00652076,1.26887489,-
 0.25706422||Version=IA32W-G09RevD.01|State=1-A|HF=-148.5085502|RMSD=1.
 849e-009|Dipole=-0.0065264,-1.3858081,-0.3036271|Quadrupole=1.3537971,
 -1.0507528,-0.3030444,0.0186363,-0.0621974,0.735643|PG=C01 [X(C1H2N2)]
 ||@


 WE HAVE LEARNED THAT NOTHING IS SIMPLE AND
 RATIONAL EXCEPT WHAT WE OURSELVES HAVE INVENTED;
 THAT GOD THINKS IN TERMS NEITHER OF EUCLID OR RIEMANN; THAT SCIENCE HAS "EXPLAINED" NOTHING;
 THAT THE MORE WE KNOW THE MORE FANTASTIC THE WORLD BECOMES
 AND THE PROFOUNDER THE SURROUNDING DARKNESS.
   --  ALDOUS HUXLEY
 Job cpu time:       0 days  0 hours  0 minutes 20.0 seconds.
 File lengths (MBytes):  RWF=      5 Int=      0 D2E=      0 Chk=      1 Scr=      1
 Normal termination of Gaussian 09 at Sat Feb 05 08:24:27 2022.
