 Entering Link 1 = C:\G09W\l1.exe PID=      2028.
  
 Copyright (c) 1988,1990,1992,1993,1995,1998,2003,2009,2013,
            Gaussian, Inc.  All Rights Reserved.
  
 This is part of the Gaussian(R) 09 program.  It is based on
 the Gaussian(R) 03 system (copyright 2003, Gaussian, Inc.),
 the Gaussian(R) 98 system (copyright 1998, Gaussian, Inc.),
 the Gaussian(R) 94 system (copyright 1995, Gaussian, Inc.),
 the Gaussian 92(TM) system (copyright 1992, Gaussian, Inc.),
 the Gaussian 90(TM) system (copyright 1990, Gaussian, Inc.),
 the Gaussian 88(TM) system (copyright 1988, Gaussian, Inc.),
 the Gaussian 86(TM) system (copyright 1986, Carnegie Mellon
 University), and the Gaussian 82(TM) system (copyright 1983,
 Carnegie Mellon University). Gaussian is a federally registered
 trademark of Gaussian, Inc.
  
 This software contains proprietary and confidential information,
 including trade secrets, belonging to Gaussian, Inc.
  
 This software is provided under written license and may be
 used, copied, transmitted, or stored only in accord with that
 written license.
  
 The following legend is applicable only to US Government
 contracts under FAR:
  
                    RESTRICTED RIGHTS LEGEND
  
 Use, reproduction and disclosure by the US Government is
 subject to restrictions as set forth in subparagraphs (a)
 and (c) of the Commercial Computer Software - Restricted
 Rights clause in FAR 52.227-19.
  
 Gaussian, Inc.
 340 Quinnipiac St., Bldg. 40, Wallingford CT 06492
  
  
 ---------------------------------------------------------------
 Warning -- This program may not be used in any manner that
 competes with the business of Gaussian, Inc. or will provide
 assistance to any competitor of Gaussian, Inc.  The licensee
 of this program is prohibited from giving any competitor of
 Gaussian, Inc. access to this program.  By using this program,
 the user acknowledges that Gaussian, Inc. is engaged in the
 business of creating and licensing software in the field of
 computational chemistry and represents and warrants to the
 licensee that it is not a competitor of Gaussian, Inc. and that
 it will not use this program in any manner prohibited above.
 ---------------------------------------------------------------
  

 Cite this work as:
 Gaussian 09, Revision D.01,
 M. J. Frisch, G. W. Trucks, H. B. Schlegel, G. E. Scuseria, 
 M. A. Robb, J. R. Cheeseman, G. Scalmani, V. Barone, B. Mennucci, 
 G. A. Petersson, H. Nakatsuji, M. Caricato, X. Li, H. P. Hratchian, 
 A. F. Izmaylov, J. Bloino, G. Zheng, J. L. Sonnenberg, M. Hada, 
 M. Ehara, K. Toyota, R. Fukuda, J. Hasegawa, M. Ishida, T. Nakajima, 
 Y. Honda, O. Kitao, H. Nakai, T. Vreven, J. A. Montgomery, Jr., 
 J. E. Peralta, F. Ogliaro, M. Bearpark, J. J. Heyd, E. Brothers, 
 K. N. Kudin, V. N. Staroverov, T. Keith, R. Kobayashi, J. Normand, 
 K. Raghavachari, A. Rendell, J. C. Burant, S. S. Iyengar, J. Tomasi, 
 M. Cossi, N. Rega, J. M. Millam, M. Klene, J. E. Knox, J. B. Cross, 
 V. Bakken, C. Adamo, J. Jaramillo, R. Gomperts, R. E. Stratmann, 
 O. Yazyev, A. J. Austin, R. Cammi, C. Pomelli, J. W. Ochterski, 
 R. L. Martin, K. Morokuma, V. G. Zakrzewski, G. A. Voth, 
 P. Salvador, J. J. Dannenberg, S. Dapprich, A. D. Daniels, 
 O. Farkas, J. B. Foresman, J. V. Ortiz, J. Cioslowski, 
 and D. J. Fox, Gaussian, Inc., Wallingford CT, 2013.
 
 ******************************************
 Gaussian 09:  IA32W-G09RevD.01 24-Apr-2013
                17-Mar-2022 
 ******************************************
 %nprocshared=4
 Will use up to    4 processors via shared memory.
 %mem=1GB
 -----------------------------------------
 # opt freq pm6 geom=connectivity pop=full
 -----------------------------------------
 1/14=-1,18=20,19=15,26=1,38=1,57=2/1,3;
 2/9=110,12=2,17=6,18=5,40=1/2;
 3/5=2,16=1,25=1,41=3900000,71=1/1,2,3;
 4/35=1/1;
 5/5=2,35=1,38=5/2;
 6/7=3,28=1/1;
 7//1,2,3,16;
 1/14=-1,18=20,19=15,26=1/3(2);
 2/9=110/2;
 99//99;
 2/9=110/2;
 3/5=2,16=1,25=1,41=3900000,71=1,135=20/1,2,3;
 4/5=5,16=3,35=1/1;
 5/5=2,35=1,38=5/2;
 7//1,2,3,16;
 1/14=-1,18=20,19=15,26=1/3(-5);
 2/9=110/2;
 6/7=3,19=2,28=1/1;
 99/9=1/99;
 ----------------------
 Energy Calculation(GC)
 ----------------------
 Symbolic Z-matrix:
 Charge =  0 Multiplicity = 1
 O                    -1.1434   -0.34243  -0.66591 
 C                     0.24622  -0.67538  -0.72072 
 C                    -1.36445   0.61057   0.37708 
 O                    -2.29952   1.4468    0.2775 
 O                     0.77151  -1.00511  -1.81567 
 C                     1.09988  -0.63044   0.56023 
 H                     1.52189   0.34628   0.67352 
 H                     0.48473  -0.85358   1.40681 
 H                     1.88616  -1.35279   0.49038 
 C                    -0.45817   0.61351   1.62218 
 H                    -0.10852  -0.37993   1.81116 
 H                     0.37774   1.25976   1.45335 
 H                    -1.01406   0.96274   2.46712 
 

 GradGradGradGradGradGradGradGradGradGradGradGradGradGradGradGradGradGrad
 Berny optimization.
 Initialization pass.
                           ----------------------------
                           !    Initial Parameters    !
                           ! (Angstroms and Degrees)  !
 --------------------------                            --------------------------
 ! Name  Definition              Value          Derivative Info.                !
 --------------------------------------------------------------------------------
 ! R1    R(1,2)                  1.43           estimate D2E/DX2                !
 ! R2    R(1,3)                  1.43           estimate D2E/DX2                !
 ! R3    R(2,5)                  1.2584         estimate D2E/DX2                !
 ! R4    R(2,6)                  1.54           estimate D2E/DX2                !
 ! R5    R(3,4)                  1.2584         estimate D2E/DX2                !
 ! R6    R(3,10)                 1.54           estimate D2E/DX2                !
 ! R7    R(6,7)                  1.07           estimate D2E/DX2                !
 ! R8    R(6,8)                  1.07           estimate D2E/DX2                !
 ! R9    R(6,9)                  1.07           estimate D2E/DX2                !
 ! R10   R(10,11)                1.07           estimate D2E/DX2                !
 ! R11   R(10,12)                1.07           estimate D2E/DX2                !
 ! R12   R(10,13)                1.07           estimate D2E/DX2                !
 ! A1    A(2,1,3)              109.4712         estimate D2E/DX2                !
 ! A2    A(1,2,5)              120.0            estimate D2E/DX2                !
 ! A3    A(1,2,6)              120.0            estimate D2E/DX2                !
 ! A4    A(5,2,6)              120.0            estimate D2E/DX2                !
 ! A5    A(1,3,4)              120.0            estimate D2E/DX2                !
 ! A6    A(1,3,10)             120.0            estimate D2E/DX2                !
 ! A7    A(4,3,10)             120.0            estimate D2E/DX2                !
 ! A8    A(2,6,7)              109.4712         estimate D2E/DX2                !
 ! A9    A(2,6,8)              109.4712         estimate D2E/DX2                !
 ! A10   A(2,6,9)              109.4712         estimate D2E/DX2                !
 ! A11   A(7,6,8)              109.4712         estimate D2E/DX2                !
 ! A12   A(7,6,9)              109.4712         estimate D2E/DX2                !
 ! A13   A(8,6,9)              109.4712         estimate D2E/DX2                !
 ! A14   A(3,10,11)            109.4712         estimate D2E/DX2                !
 ! A15   A(3,10,12)            109.4712         estimate D2E/DX2                !
 ! A16   A(3,10,13)            109.4712         estimate D2E/DX2                !
 ! A17   A(11,10,12)           109.4712         estimate D2E/DX2                !
 ! A18   A(11,10,13)           109.4712         estimate D2E/DX2                !
 ! A19   A(12,10,13)           109.4712         estimate D2E/DX2                !
 ! D1    D(3,1,2,5)           -150.0            estimate D2E/DX2                !
 ! D2    D(3,1,2,6)             30.0            estimate D2E/DX2                !
 ! D3    D(2,1,3,4)            150.0            estimate D2E/DX2                !
 ! D4    D(2,1,3,10)           -30.0            estimate D2E/DX2                !
 ! D5    D(1,2,6,7)            -90.0            estimate D2E/DX2                !
 ! D6    D(1,2,6,8)             30.0            estimate D2E/DX2                !
 ! D7    D(1,2,6,9)            150.0            estimate D2E/DX2                !
 ! D8    D(5,2,6,7)             90.0            estimate D2E/DX2                !
 ! D9    D(5,2,6,8)           -150.0            estimate D2E/DX2                !
 ! D10   D(5,2,6,9)            -30.0            estimate D2E/DX2                !
 ! D11   D(1,3,10,11)          -30.0            estimate D2E/DX2                !
 ! D12   D(1,3,10,12)           90.0            estimate D2E/DX2                !
 ! D13   D(1,3,10,13)         -150.0            estimate D2E/DX2                !
 ! D14   D(4,3,10,11)          150.0            estimate D2E/DX2                !
 ! D15   D(4,3,10,12)          -90.0            estimate D2E/DX2                !
 ! D16   D(4,3,10,13)           30.0            estimate D2E/DX2                !
 --------------------------------------------------------------------------------
 Trust Radius=3.00D-01 FncErr=1.00D-07 GrdErr=1.00D-07
 Number of steps in this run=     57 maximum allowed number of steps=    100.
 GradGradGradGradGradGradGradGradGradGradGradGradGradGradGradGradGradGrad

                          Input orientation:                          
 ---------------------------------------------------------------------
 Center     Atomic      Atomic             Coordinates (Angstroms)
 Number     Number       Type             X           Y           Z
 ---------------------------------------------------------------------
      1          8           0       -1.143403   -0.342430   -0.665911
      2          6           0        0.246216   -0.675382   -0.720718
      3          6           0       -1.364448    0.610567    0.377082
      4          8           0       -2.299523    1.446801    0.277497
      5          8           0        0.771514   -1.005106   -1.815667
      6          6           0        1.099881   -0.630438    0.560234
      7          1           0        1.521886    0.346280    0.673523
      8          1           0        0.484730   -0.853578    1.406814
      9          1           0        1.886157   -1.352788    0.490376
     10          6           0       -0.458173    0.613508    1.622176
     11          1           0       -0.108516   -0.379933    1.811160
     12          1           0        0.377743    1.259760    1.453350
     13          1           0       -1.014064    0.962740    2.467115
 ---------------------------------------------------------------------
                    Distance matrix (angstroms):
                    1          2          3          4          5
     1  O    0.000000
     2  C    1.430000   0.000000
     3  C    1.430000   2.335180   0.000000
     4  O    2.329803   3.461341   1.258400   0.000000
     5  O    2.329803   1.258400   3.461341   4.452466   0.000000
     6  C    2.572683   1.540000   2.765240   3.993846   2.427572
     7  H    3.061399   2.148263   2.913528   3.996392   2.930080
     8  H    2.684824   2.148263   2.573621   3.784068   3.238764
     9  H    3.396477   2.148263   3.799214   5.040132   2.584792
    10  C    2.572683   2.765240   1.540000   2.427572   3.993846
    11  H    2.684824   2.573621   2.148263   3.238764   3.784068
    12  H    3.061399   2.913528   2.148263   2.930080   3.996392
    13  H    3.396477   3.799214   2.148263   2.584792   5.040132
                    6          7          8          9         10
     6  C    0.000000
     7  H    1.070000   0.000000
     8  H    1.070000   1.747303   0.000000
     9  H    1.070000   1.747303   1.747303   0.000000
    10  C    2.258906   2.211784   1.757211   3.262388   0.000000
    11  H    1.757211   2.116556   0.860102   2.582564   1.070000
    12  H    2.211784   1.658806   2.116556   3.166708   1.070000
    13  H    3.262388   3.166708   2.582564   4.204813   1.070000
                   11         12         13
    11  H    0.000000
    12  H    1.747303   0.000000
    13  H    1.747303   1.747303   0.000000
 Stoichiometry    C4H6O3
 Framework group  CS[SG(O),X(C4H6O2)]
 Deg. of freedom    17
 Full point group                 CS      NOp   2
 Largest Abelian subgroup         CS      NOp   2
 Largest concise Abelian subgroup CS      NOp   2
                         Standard orientation:                         
 ---------------------------------------------------------------------
 Center     Atomic      Atomic             Coordinates (Angstroms)
 Number     Number       Type             X           Y           Z
 ---------------------------------------------------------------------
      1          8           0       -0.819005   -0.709614    0.000000
      2          6           0       -0.157738   -0.215286    1.167590
      3          6           0       -0.157738   -0.215286   -1.167590
      4          8           0       -0.157738   -0.895614   -2.226233
      5          8           0       -0.157738   -0.895614    2.226233
      6          6           0        0.554395    1.149636    1.129453
      7          1           0        1.572281    1.012598    0.829403
      8          1           0        0.059601    1.790664    0.430051
      9          1           0        0.526097    1.594001    2.102406
     10          6           0        0.554395    1.149636   -1.129453
     11          1           0        0.059601    1.790664   -0.430051
     12          1           0        1.572281    1.012598   -0.829403
     13          1           0        0.526097    1.594001   -2.102406
 ---------------------------------------------------------------------
 Rotational constants (GHZ):      4.8444731      2.1006697      1.5368659
 Standard basis: VSTO-6G (5D, 7F)
 There are    18 symmetry adapted cartesian basis functions of A'  symmetry.
 There are    16 symmetry adapted cartesian basis functions of A"  symmetry.
 There are    18 symmetry adapted basis functions of A'  symmetry.
 There are    16 symmetry adapted basis functions of A"  symmetry.
    34 basis functions,   204 primitive gaussians,    34 cartesian basis functions
    20 alpha electrons       20 beta electrons
       nuclear repulsion energy       198.5206266304 Hartrees.
 Integral buffers will be    262144 words long.
 Regular integral format.
 Two-electron integral symmetry is turned off.
 Do NDO integrals.
 One-electron integrals computed using PRISM.
 NBasis=    34 RedAO= T EigKep=  7.07D-01  NBF=    18    16
 NBsUse=    34 1.00D-06 EigRej= -1.00D+00 NBFU=    18    16
 Simple Huckel Guess.
 Initial guess orbital symmetries:
       Occupied  (A') (A') (A") (A') (A") (A') (A') (A") (A') (A")
                 (A") (A') (A') (A") (A') (A") (A') (A") (A') (A")
       Virtual   (A") (A') (A") (A') (A') (A') (A") (A") (A') (A")
                 (A') (A") (A') (A")
 The electronic state of the initial guess is 1-A'.
 Overlap will be assumed to be unity.
 Keep J ints in memory in canonical form, NReq=889143.
 Requested convergence on RMS density matrix=1.00D-08 within 128 cycles.
 Requested convergence on MAX density matrix=1.00D-06.
 Requested convergence on             energy=1.00D-06.
 No special actions if energy rises.
 Fock symm off for IB=2 I1=    1 I=   19 J=   15 Cut=1.00D-07 Err=9.43D-03
 Fock matrix is not symmetric: symmetry in diagonalization turned off.
 SCF Done:  E(RPM6) = -0.687863019967E-01 A.U. after   13 cycles
            NFock= 12  Conv=0.92D-08     -V/T= 0.9969

 **********************************************************************

            Population analysis using the SCF density.

 **********************************************************************

 Orbital symmetries:
       Occupied  (A') (A") (A') (A') (A") (A") (A') (A') (A') (A")
                 (A') (A') (A") (A") (A') (A") (A") (A') (A') (A")
       Virtual   (A") (A') (A') (A") (A') (A') (A") (A") (A') (A')
                 (A") (A") (A') (A")
 The electronic state is 1-A'.
 Alpha  occ. eigenvalues --   -1.20190  -1.16760  -1.14915  -1.11433  -0.94296
 Alpha  occ. eigenvalues --   -0.84191  -0.79694  -0.67983  -0.65761  -0.65056
 Alpha  occ. eigenvalues --   -0.61112  -0.56996  -0.56921  -0.55844  -0.53953
 Alpha  occ. eigenvalues --   -0.49805  -0.45919  -0.45530  -0.42583  -0.41176
 Alpha virt. eigenvalues --   -0.02212  -0.01353   0.00741   0.03842   0.07808
 Alpha virt. eigenvalues --    0.10053   0.11134   0.13240   0.13477   0.15130
 Alpha virt. eigenvalues --    0.16767   0.18756   0.19000   0.22530
     Molecular Orbital Coefficients:
                           1         2         3         4         5
                           O         O         O         O         O
     Eigenvalues --    -1.20190  -1.16760  -1.14915  -1.11433  -0.94296
   1 1   O  1S          0.43832   0.00000  -0.34162   0.63335   0.00000
   2        1PX         0.14685   0.00000  -0.04514   0.10170   0.00000
   3        1PY         0.13007   0.00000  -0.07240   0.04143   0.00000
   4        1PZ         0.00000  -0.14794   0.00000   0.00000   0.13926
   5 2   C  1S          0.32860  -0.33032   0.16181   0.12152   0.24902
   6        1PX         0.00099   0.00342   0.04839  -0.11251   0.05699
   7        1PY         0.03915   0.11535  -0.09671  -0.18851   0.18990
   8        1PZ        -0.11197  -0.19443   0.29662  -0.06802  -0.07713
   9 3   C  1S          0.32860   0.33032   0.16181   0.12152  -0.24902
  10        1PX         0.00099  -0.00342   0.04839  -0.11251  -0.05699
  11        1PY         0.03915  -0.11535  -0.09671  -0.18851  -0.18990
  12        1PZ         0.11197  -0.19443  -0.29662   0.06802  -0.07713
  13 4   O  1S          0.08136   0.50657   0.51889   0.17133   0.26231
  14        1PX         0.00331  -0.00058   0.00960  -0.02364  -0.01851
  15        1PY         0.05241   0.13064   0.11972   0.00461  -0.06617
  16        1PZ         0.08415   0.19899   0.15587   0.08495  -0.02931
  17 5   O  1S          0.08136  -0.50657   0.51889   0.17133  -0.26231
  18        1PX         0.00331   0.00058   0.00960  -0.02364   0.01851
  19        1PY         0.05241  -0.13064   0.11972   0.00461   0.06617
  20        1PZ        -0.08415   0.19899  -0.15587  -0.08495  -0.02931
  21 6   C  1S          0.35514  -0.08752   0.02163  -0.30297   0.45244
  22        1PX        -0.03980   0.02319  -0.00111  -0.00897  -0.02658
  23        1PY        -0.03160   0.05742  -0.03066  -0.05393  -0.06198
  24        1PZ        -0.09152  -0.03147   0.04290   0.06289   0.07608
  25 7   H  1S          0.17139  -0.02865   0.00766  -0.15590   0.17154
  26 8   H  1S          0.25677  -0.01504  -0.01560  -0.22801   0.11416
  27 9   H  1S          0.11748  -0.04489   0.02514  -0.11678   0.22616
  28 10  C  1S          0.35514   0.08752   0.02163  -0.30297  -0.45244
  29        1PX        -0.03980  -0.02319  -0.00111  -0.00897   0.02658
  30        1PY        -0.03160  -0.05742  -0.03066  -0.05393   0.06198
  31        1PZ         0.09152  -0.03147  -0.04290  -0.06289   0.07608
  32 11  H  1S          0.25677   0.01504  -0.01560  -0.22801  -0.11416
  33 12  H  1S          0.17139   0.02865   0.00766  -0.15590  -0.17154
  34 13  H  1S          0.11748   0.04489   0.02514  -0.11678  -0.22616
                           6         7         8         9        10
                           O         O         O         O         O
     Eigenvalues --    -0.84191  -0.79694  -0.67983  -0.65761  -0.65056
   1 1   O  1S          0.00000  -0.31373   0.16119  -0.19516   0.00000
   2        1PX         0.00000   0.22394  -0.02478   0.38375   0.00000
   3        1PY         0.00000   0.17403  -0.22143  -0.01175   0.00000
   4        1PZ         0.57612   0.00000   0.00000   0.00000   0.37427
   5 2   C  1S          0.27103   0.35553  -0.05822  -0.01440  -0.15530
   6        1PX        -0.17123   0.10086   0.14268   0.14494  -0.20550
   7        1PY        -0.12353   0.11412  -0.05969  -0.16524  -0.16031
   8        1PZ        -0.18559  -0.04827   0.03809  -0.19358  -0.18756
   9 3   C  1S         -0.27103   0.35553  -0.05822  -0.01440   0.15530
  10        1PX         0.17123   0.10086   0.14268   0.14494   0.20550
  11        1PY         0.12353   0.11412  -0.05969  -0.16524   0.16031
  12        1PZ        -0.18559   0.04827  -0.03809   0.19358  -0.18756
  13 4   O  1S          0.23196  -0.25521  -0.04677   0.10351  -0.18535
  14        1PX         0.07231   0.04281   0.10631   0.10211   0.14263
  15        1PY        -0.00009   0.13159  -0.00111  -0.21268   0.26323
  16        1PZ        -0.16097   0.15501   0.01165   0.01809   0.12449
  17 5   O  1S         -0.23196  -0.25521  -0.04677   0.10351   0.18535
  18        1PX        -0.07231   0.04281   0.10631   0.10211  -0.14263
  19        1PY         0.00009   0.13159  -0.00111  -0.21268  -0.26323
  20        1PZ        -0.16097  -0.15501  -0.01165  -0.01809   0.12449
  21 6   C  1S         -0.21065  -0.05639   0.12686  -0.07877   0.14732
  22        1PX        -0.06629  -0.07956   0.38587   0.18397   0.12555
  23        1PY        -0.07532  -0.29199  -0.11529  -0.06811   0.28246
  24        1PZ        -0.07255   0.08341   0.22237  -0.34505   0.02131
  25 7   H  1S         -0.10678  -0.06882   0.29613   0.15788   0.11383
  26 8   H  1S         -0.05591  -0.20358  -0.28378   0.03865   0.09009
  27 9   H  1S         -0.14963  -0.04927   0.15443  -0.25376   0.15644
  28 10  C  1S          0.21065  -0.05639   0.12686  -0.07877  -0.14732
  29        1PX         0.06629  -0.07956   0.38587   0.18397  -0.12555
  30        1PY         0.07532  -0.29199  -0.11529  -0.06811  -0.28246
  31        1PZ        -0.07255  -0.08341  -0.22237   0.34505   0.02131
  32 11  H  1S          0.05591  -0.20358  -0.28378   0.03865  -0.09009
  33 12  H  1S          0.10678  -0.06882   0.29613   0.15788  -0.11383
  34 13  H  1S          0.14963  -0.04927   0.15443  -0.25376  -0.15644
                          11        12        13        14        15
                           O         O         O         O         O
     Eigenvalues --    -0.61112  -0.56996  -0.56921  -0.55844  -0.53953
   1 1   O  1S          0.00395  -0.12127   0.00000   0.00000  -0.22303
   2        1PX         0.04168   0.49285   0.00000   0.00000   0.13328
   3        1PY        -0.36516  -0.06054   0.00000   0.00000   0.44506
   4        1PZ         0.00000   0.00000  -0.01267   0.13831   0.00000
   5 2   C  1S          0.03725  -0.01855  -0.01191   0.07755   0.02688
   6        1PX        -0.01503   0.10900   0.22348   0.11776  -0.30257
   7        1PY        -0.28484  -0.11954  -0.23737   0.20269  -0.08443
   8        1PZ         0.13782  -0.16216  -0.04973  -0.22851  -0.06806
   9 3   C  1S          0.03725  -0.01855   0.01191  -0.07755   0.02688
  10        1PX        -0.01503   0.10900  -0.22348  -0.11776  -0.30257
  11        1PY        -0.28484  -0.11954   0.23737  -0.20269  -0.08443
  12        1PZ        -0.13782   0.16216  -0.04973  -0.22851   0.06806
  13 4   O  1S         -0.28617   0.07107   0.06928  -0.22502  -0.00246
  14        1PX        -0.02303   0.13356  -0.27346  -0.12644  -0.39299
  15        1PY         0.08632  -0.21545   0.15676   0.18660  -0.06932
  16        1PZ         0.41624  -0.02198  -0.23816   0.32780   0.08676
  17 5   O  1S         -0.28617   0.07107  -0.06928   0.22502  -0.00246
  18        1PX        -0.02303   0.13356   0.27346   0.12644  -0.39299
  19        1PY         0.08632  -0.21545  -0.15676  -0.18660  -0.06932
  20        1PZ        -0.41624   0.02198  -0.23816   0.32780  -0.08676
  21 6   C  1S         -0.03541   0.04517   0.01850   0.04337   0.00081
  22        1PX         0.02282  -0.14867   0.37986  -0.05845   0.20432
  23        1PY         0.21041   0.18416  -0.06799  -0.29214   0.13919
  24        1PZ        -0.05677   0.30346  -0.09756  -0.20279   0.07883
  25 7   H  1S         -0.01092  -0.16888   0.24729   0.03569   0.12916
  26 8   H  1S          0.13488   0.01449  -0.06436  -0.00541  -0.06923
  27 9   H  1S          0.00143   0.26056  -0.07793  -0.18787   0.08707
  28 10  C  1S         -0.03541   0.04517  -0.01850  -0.04337   0.00081
  29        1PX         0.02282  -0.14867  -0.37986   0.05845   0.20432
  30        1PY         0.21041   0.18416   0.06799   0.29214   0.13919
  31        1PZ         0.05677  -0.30346  -0.09756  -0.20279  -0.07883
  32 11  H  1S          0.13488   0.01449   0.06436   0.00541  -0.06923
  33 12  H  1S         -0.01092  -0.16888  -0.24729  -0.03569   0.12916
  34 13  H  1S          0.00143   0.26056   0.07793   0.18787   0.08707
                          16        17        18        19        20
                           O         O         O         O         O
     Eigenvalues --    -0.49805  -0.45919  -0.45530  -0.42583  -0.41176
   1 1   O  1S          0.00000   0.00000  -0.00668   0.00285   0.00000
   2        1PX         0.00000   0.00000  -0.44294   0.29967   0.00000
   3        1PY         0.00000   0.00000   0.57194   0.28686   0.00000
   4        1PZ        -0.04643   0.19530   0.00000   0.00000  -0.26723
   5 2   C  1S         -0.01394  -0.00258  -0.00683  -0.04992   0.04824
   6        1PX        -0.17657  -0.00642   0.05513  -0.01734   0.01800
   7        1PY         0.08480   0.02927  -0.07463  -0.05160   0.05108
   8        1PZ         0.09805  -0.03098  -0.01381   0.04450  -0.02300
   9 3   C  1S          0.01394   0.00258  -0.00683  -0.04992  -0.04824
  10        1PX         0.17657   0.00642   0.05513  -0.01734  -0.01800
  11        1PY        -0.08480  -0.02927  -0.07463  -0.05160  -0.05108
  12        1PZ         0.09805  -0.03098   0.01381  -0.04450  -0.02300
  13 4   O  1S          0.02045  -0.02472  -0.01923  -0.02525  -0.01101
  14        1PX         0.38152  -0.07086   0.36287   0.24526   0.35657
  15        1PY        -0.23355  -0.10080  -0.18806   0.48370   0.43094
  16        1PZ         0.08838   0.20622   0.22755  -0.18288  -0.22542
  17 5   O  1S         -0.02045   0.02472  -0.01923  -0.02525   0.01101
  18        1PX        -0.38152   0.07086   0.36287   0.24526  -0.35657
  19        1PY         0.23355   0.10080  -0.18806   0.48370  -0.43094
  20        1PZ         0.08838   0.20622  -0.22755   0.18288  -0.22542
  21 6   C  1S          0.02392  -0.14915  -0.02319  -0.09421   0.01206
  22        1PX         0.31555   0.22052   0.03059   0.12992  -0.04010
  23        1PY        -0.12792  -0.18755   0.08459   0.22161  -0.23734
  24        1PZ        -0.19133   0.45600   0.02536  -0.02221   0.15462
  25 7   H  1S          0.24855   0.00978  -0.00513   0.03267  -0.02715
  26 8   H  1S         -0.04756  -0.27305   0.01331   0.04335  -0.10232
  27 9   H  1S         -0.15897   0.17918   0.02843   0.00247   0.03905
  28 10  C  1S         -0.02392   0.14915  -0.02319  -0.09421  -0.01206
  29        1PX        -0.31555  -0.22052   0.03059   0.12992   0.04010
  30        1PY         0.12792   0.18755   0.08459   0.22161   0.23734
  31        1PZ        -0.19133   0.45600  -0.02536   0.02221   0.15462
  32 11  H  1S          0.04756   0.27305   0.01331   0.04335   0.10232
  33 12  H  1S         -0.24855  -0.00978  -0.00513   0.03267   0.02715
  34 13  H  1S          0.15897  -0.17918   0.02843   0.00247  -0.03905
                          21        22        23        24        25
                           V         V         V         V         V
     Eigenvalues --    -0.02212  -0.01353   0.00741   0.03842   0.07808
   1 1   O  1S          0.00000   0.14966   0.13565   0.00000   0.13151
   2        1PX         0.00000   0.06486   0.44140   0.00000   0.11456
   3        1PY         0.00000   0.33722   0.12064   0.00000  -0.00403
   4        1PZ        -0.03842   0.00000   0.00000  -0.35436   0.00000
   5 2   C  1S          0.06627  -0.25241  -0.29695   0.40273   0.15687
   6        1PX         0.46702   0.46669  -0.22973  -0.03660   0.22445
   7        1PY        -0.27440  -0.10983   0.19880   0.20087   0.41691
   8        1PZ        -0.21883   0.05807   0.29057  -0.15908   0.15907
   9 3   C  1S         -0.06627  -0.25241  -0.29695  -0.40273   0.15687
  10        1PX        -0.46702   0.46669  -0.22973   0.03660   0.22445
  11        1PY         0.27440  -0.10983   0.19880  -0.20087   0.41691
  12        1PZ        -0.21883  -0.05807  -0.29057  -0.15908  -0.15907
  13 4   O  1S         -0.00225   0.00122  -0.00188  -0.02204   0.01061
  14        1PX         0.30570  -0.29516   0.13369  -0.02654  -0.07368
  15        1PY        -0.17193   0.11096  -0.08775   0.07700  -0.14170
  16        1PZ         0.13652   0.09478   0.21626   0.06580   0.06493
  17 5   O  1S          0.00225   0.00122  -0.00188   0.02204   0.01061
  18        1PX        -0.30570  -0.29516   0.13369   0.02654  -0.07368
  19        1PY         0.17193   0.11096  -0.08775  -0.07700  -0.14170
  20        1PZ         0.13652  -0.09478  -0.21626   0.06580  -0.06493
  21 6   C  1S         -0.00913   0.04169   0.08362  -0.17663  -0.11232
  22        1PX        -0.02403  -0.05074  -0.08882   0.20020   0.15887
  23        1PY         0.05636  -0.10852  -0.16966   0.35225   0.36178
  24        1PZ         0.00132   0.01623  -0.01113   0.00588  -0.02226
  25 7   H  1S         -0.07306  -0.07246   0.05245  -0.00799  -0.03282
  26 8   H  1S          0.03149   0.05309  -0.01826  -0.03359  -0.05712
  27 9   H  1S          0.04194   0.00761  -0.04451   0.00090  -0.08524
  28 10  C  1S          0.00913   0.04169   0.08362   0.17663  -0.11232
  29        1PX         0.02403  -0.05074  -0.08882  -0.20020   0.15887
  30        1PY        -0.05636  -0.10852  -0.16966  -0.35225   0.36178
  31        1PZ         0.00132  -0.01623   0.01113   0.00588   0.02226
  32 11  H  1S         -0.03149   0.05309  -0.01826   0.03359  -0.05712
  33 12  H  1S          0.07306  -0.07246   0.05245   0.00799  -0.03282
  34 13  H  1S         -0.04194   0.00761  -0.04451  -0.00090  -0.08524
                          26        27        28        29        30
                           V         V         V         V         V
     Eigenvalues --     0.10053   0.11134   0.13240   0.13477   0.15130
   1 1   O  1S          0.02553   0.00000   0.00000   0.05800  -0.02377
   2        1PX         0.04339   0.00000   0.00000   0.05919  -0.04391
   3        1PY         0.03575   0.00000   0.00000   0.14215  -0.04760
   4        1PZ         0.00000   0.40255   0.24987   0.00000   0.00000
   5 2   C  1S          0.09747   0.05695  -0.22932   0.16283  -0.05893
   6        1PX        -0.01644   0.27391   0.17261   0.04923   0.03628
   7        1PY        -0.03478   0.14936   0.39760  -0.24638   0.07595
   8        1PZ         0.16409   0.44423  -0.21002   0.36488  -0.16637
   9 3   C  1S          0.09747  -0.05695   0.22932   0.16283  -0.05893
  10        1PX        -0.01644  -0.27391  -0.17261   0.04923   0.03628
  11        1PY        -0.03478  -0.14936  -0.39760  -0.24638   0.07595
  12        1PZ        -0.16409   0.44423  -0.21002  -0.36488   0.16637
  13 4   O  1S         -0.06152   0.09117  -0.14377  -0.14690   0.05747
  14        1PX         0.00338   0.08804   0.05629  -0.01843  -0.01437
  15        1PY        -0.11399   0.20879  -0.13881  -0.18171   0.07574
  16        1PZ        -0.12340   0.12005  -0.33827  -0.29067   0.10232
  17 5   O  1S         -0.06152  -0.09117   0.14377  -0.14690   0.05747
  18        1PX         0.00338  -0.08804  -0.05629  -0.01843  -0.01437
  19        1PY        -0.11399  -0.20879   0.13881  -0.18171   0.07574
  20        1PZ         0.12340   0.12005  -0.33827   0.29067  -0.10232
  21 6   C  1S         -0.16999  -0.04666  -0.02792   0.03054  -0.14803
  22        1PX         0.25755   0.08004   0.08502  -0.23330  -0.25292
  23        1PY        -0.20549   0.15892   0.10443   0.07894   0.08184
  24        1PZ         0.28209   0.02101   0.00157  -0.03033   0.30605
  25 7   H  1S         -0.07777  -0.03726  -0.07242   0.20618   0.42197
  26 8   H  1S          0.44114   0.03358  -0.04838  -0.12276   0.09062
  27 9   H  1S         -0.10239  -0.10092  -0.01321  -0.06460  -0.25913
  28 10  C  1S         -0.16999   0.04666   0.02792   0.03054  -0.14803
  29        1PX         0.25755  -0.08004  -0.08502  -0.23330  -0.25292
  30        1PY        -0.20549  -0.15892  -0.10443   0.07894   0.08184
  31        1PZ        -0.28209   0.02101   0.00157   0.03033  -0.30605
  32 11  H  1S          0.44114  -0.03358   0.04838  -0.12276   0.09062
  33 12  H  1S         -0.07777   0.03726   0.07242   0.20618   0.42197
  34 13  H  1S         -0.10239   0.10092   0.01321  -0.06460  -0.25913
                          31        32        33        34
                           V         V         V         V
     Eigenvalues --     0.16767   0.18756   0.19000   0.22530
   1 1   O  1S          0.00000   0.00000   0.01879   0.00000
   2        1PX         0.00000   0.00000   0.01206   0.00000
   3        1PY         0.00000   0.00000  -0.01145   0.00000
   4        1PZ         0.01787   0.05866   0.00000   0.02120
   5 2   C  1S          0.01302  -0.00318   0.00959  -0.00558
   6        1PX        -0.02026   0.06775   0.03879   0.02389
   7        1PY         0.00622   0.03986   0.07634   0.06264
   8        1PZ         0.06603   0.04155   0.02582  -0.01036
   9 3   C  1S         -0.01302   0.00318   0.00959   0.00558
  10        1PX         0.02026  -0.06775   0.03879  -0.02389
  11        1PY        -0.00622  -0.03986   0.07634  -0.06264
  12        1PZ         0.06603   0.04155  -0.02582  -0.01036
  13 4   O  1S          0.01605   0.00379   0.00205  -0.00954
  14        1PX        -0.00849   0.01880  -0.01278   0.00948
  15        1PY         0.02864   0.01594  -0.02239   0.00575
  16        1PZ         0.02069  -0.00345   0.01653  -0.02374
  17 5   O  1S         -0.01605  -0.00379   0.00205   0.00954
  18        1PX         0.00849  -0.01880  -0.01278  -0.00948
  19        1PY        -0.02864  -0.01594  -0.02239  -0.00575
  20        1PZ         0.02069  -0.00345  -0.01653  -0.02374
  21 6   C  1S          0.00209  -0.20249  -0.41272  -0.34803
  22        1PX         0.22468  -0.27416  -0.08155   0.03392
  23        1PY        -0.12662   0.07084  -0.10738  -0.15844
  24        1PZ        -0.34479  -0.21700  -0.18073   0.04432
  25 7   H  1S         -0.37429   0.37332   0.21632   0.16989
  26 8   H  1S         -0.04936  -0.31267   0.09387   0.52750
  27 9   H  1S          0.40664   0.29038   0.46245   0.19469
  28 10  C  1S         -0.00209   0.20249  -0.41272   0.34803
  29        1PX        -0.22468   0.27416  -0.08155  -0.03392
  30        1PY         0.12662  -0.07084  -0.10738   0.15844
  31        1PZ        -0.34479  -0.21700   0.18073   0.04432
  32 11  H  1S          0.04936   0.31267   0.09387  -0.52750
  33 12  H  1S          0.37429  -0.37332   0.21632  -0.16989
  34 13  H  1S         -0.40664  -0.29038   0.46245  -0.19469
     Density Matrix:
                           1         2         3         4         5
   1 1   O  1S          1.87395
   2        1PX        -0.18092   1.56075
   3        1PY        -0.15275  -0.17315   1.69566
   4        1PZ         0.00000   0.00000   0.00000   1.28853
   5 2   C  1S          0.08782   0.22581   0.18450   0.35940   1.12260
   6        1PX        -0.14100   0.08869  -0.26599  -0.30508   0.03622
   7        1PY        -0.09962  -0.21976   0.11098  -0.20523   0.06703
   8        1PZ        -0.19763  -0.37316  -0.23870  -0.38905  -0.01030
   9 3   C  1S          0.08782   0.22581   0.18450  -0.35940   0.01308
  10        1PX        -0.14100   0.08869  -0.26599   0.30508   0.00266
  11        1PY        -0.09962  -0.21976   0.11098   0.20523  -0.01439
  12        1PZ         0.19763   0.37316   0.23870  -0.38905   0.02758
  13 4   O  1S          0.02019   0.02680   0.05139  -0.01796   0.00396
  14        1PX         0.07321  -0.06192   0.16955  -0.09663  -0.04550
  15        1PY         0.05921   0.13414   0.01170  -0.06051   0.01185
  16        1PZ        -0.05986  -0.16438  -0.01400   0.13019   0.04564
  17 5   O  1S          0.02019   0.02680   0.05139   0.01796   0.12151
  18        1PX         0.07321  -0.06192   0.16955   0.09663  -0.03968
  19        1PY         0.05921   0.13414   0.01170   0.06051   0.26636
  20        1PZ         0.05986   0.16438   0.01400   0.13019  -0.52711
  21 6   C  1S          0.00798  -0.04541  -0.06927  -0.03593   0.25037
  22        1PX         0.00245   0.03361   0.07890   0.05580  -0.26610
  23        1PY        -0.00739   0.09922   0.11462   0.07678  -0.50241
  24        1PZ         0.01447   0.02317   0.00501   0.02248   0.00450
  25 7   H  1S          0.00808  -0.01520   0.02802   0.01729  -0.00036
  26 8   H  1S         -0.00341   0.00426  -0.01773  -0.00816  -0.00120
  27 9   H  1S          0.01524   0.04045   0.01652   0.03485  -0.00167
  28 10  C  1S          0.00798  -0.04541  -0.06927   0.03593  -0.01115
  29        1PX         0.00245   0.03361   0.07890  -0.05580   0.00472
  30        1PY        -0.00739   0.09922   0.11462  -0.07678   0.01643
  31        1PZ        -0.01447  -0.02317  -0.00501   0.02248  -0.00148
  32 11  H  1S         -0.00341   0.00426  -0.01773   0.00816  -0.00532
  33 12  H  1S          0.00808  -0.01520   0.02802  -0.01729  -0.00270
  34 13  H  1S          0.01524   0.04045   0.01652  -0.03485   0.01315
                           6         7         8         9        10
   6        1PX         0.68739
   7        1PY         0.06216   0.79901
   8        1PZ         0.00686  -0.04759   0.75531
   9 3   C  1S          0.00266  -0.01439  -0.02758   1.12260
  10        1PX         0.00674  -0.02540  -0.03199   0.03622   0.68739
  11        1PY        -0.02540   0.00536   0.00185   0.06703   0.06216
  12        1PZ         0.03199  -0.00185  -0.03865   0.01030  -0.00686
  13 4   O  1S          0.00211   0.00187  -0.00804   0.12151   0.00057
  14        1PX         0.01547   0.04353   0.05877  -0.03968   0.73244
  15        1PY         0.02860  -0.00777  -0.01999   0.26636  -0.16838
  16        1PZ        -0.07164  -0.00457  -0.04253   0.52711   0.06685
  17 5   O  1S          0.00057  -0.18894   0.29601   0.00396   0.00211
  18        1PX         0.73244  -0.16606  -0.08228  -0.04550   0.01547
  19        1PY        -0.16838   0.15149   0.57911   0.01185   0.02860
  20        1PZ        -0.06685   0.57379  -0.29947  -0.04564   0.07164
  21 6   C  1S          0.15904   0.32010  -0.03326  -0.01115   0.00915
  22        1PX        -0.00011  -0.32479   0.02433   0.00472  -0.01718
  23        1PY        -0.30833  -0.45480   0.08567   0.01643   0.00592
  24        1PZ        -0.00574   0.01922   0.10132   0.00148  -0.00666
  25 7   H  1S          0.07540  -0.02489  -0.01723  -0.00270  -0.00299
  26 8   H  1S         -0.03796   0.02733  -0.01090  -0.00532  -0.00117
  27 9   H  1S         -0.01479   0.03094   0.05169   0.01315   0.00805
  28 10  C  1S          0.00915  -0.00352   0.00897   0.25037   0.15904
  29        1PX        -0.01718   0.01585   0.00116  -0.26610  -0.00011
  30        1PY         0.00592  -0.00416  -0.00824  -0.50241  -0.30833
  31        1PZ         0.00666  -0.00545  -0.00346  -0.00450   0.00574
  32 11  H  1S         -0.00117  -0.01002  -0.00364  -0.00120  -0.03796
  33 12  H  1S         -0.00299   0.00421   0.00259  -0.00036   0.07540
  34 13  H  1S          0.00805   0.00953  -0.00623  -0.00167  -0.01479
                          11        12        13        14        15
  11        1PY         0.79901
  12        1PZ         0.04759   0.75531
  13 4   O  1S         -0.18894  -0.29601   1.88275
  14        1PX        -0.16606   0.08228   0.00015   1.56653
  15        1PY         0.15149  -0.57911  -0.14992   0.15161   1.61640
  16        1PZ        -0.57379  -0.29947  -0.22994  -0.06092  -0.22124
  17 5   O  1S          0.00187   0.00804   0.00210  -0.00115   0.00268
  18        1PX         0.04353  -0.05877  -0.00115  -0.01109  -0.02408
  19        1PY        -0.00777   0.01999   0.00268  -0.02408   0.01424
  20        1PZ         0.00457  -0.04253  -0.00353  -0.06328   0.00518
  21 6   C  1S         -0.00352  -0.00897  -0.00316  -0.00501  -0.00399
  22        1PX         0.01585  -0.00116   0.00305   0.01265  -0.00415
  23        1PY        -0.00416   0.00824  -0.00177  -0.01879  -0.00395
  24        1PZ         0.00545  -0.00346   0.00219   0.00753   0.00434
  25 7   H  1S          0.00421  -0.00259   0.00041  -0.00051  -0.00190
  26 8   H  1S         -0.01002   0.00364   0.00107   0.00472   0.01053
  27 9   H  1S          0.00953   0.00623   0.00123  -0.00752  -0.00255
  28 10  C  1S          0.32010   0.03326   0.02188  -0.04865  -0.09625
  29        1PX        -0.32479  -0.02433  -0.02511  -0.01763   0.10272
  30        1PY        -0.45480  -0.08567  -0.03644   0.09583   0.12689
  31        1PZ        -0.01922   0.10132   0.01870  -0.01334   0.03040
  32 11  H  1S          0.02733   0.01090   0.01577   0.04589   0.01998
  33 12  H  1S         -0.02489   0.01723   0.00497  -0.07119   0.03980
  34 13  H  1S          0.03094  -0.05169  -0.00536   0.02056  -0.03849
                          16        17        18        19        20
  16        1PZ         1.35352
  17 5   O  1S          0.00353   1.88275
  18        1PX         0.06328   0.00015   1.56653
  19        1PY        -0.00518  -0.14992   0.15161   1.61640
  20        1PZ         0.03523   0.22994   0.06092   0.22124   1.35352
  21 6   C  1S         -0.00971   0.02188  -0.04865  -0.09625   0.00980
  22        1PX         0.01874  -0.02511  -0.01763   0.10272  -0.00086
  23        1PY        -0.00210  -0.03644   0.09583   0.12689  -0.05999
  24        1PZ         0.00972  -0.01870   0.01334  -0.03040   0.00980
  25 7   H  1S          0.00956   0.00497  -0.07119   0.03980   0.00460
  26 8   H  1S          0.00108   0.01577   0.04589   0.01998  -0.04115
  27 9   H  1S          0.00194  -0.00536   0.02056  -0.03849  -0.00564
  28 10  C  1S         -0.00980  -0.00316  -0.00501  -0.00399   0.00971
  29        1PX         0.00086   0.00305   0.01265  -0.00415  -0.01874
  30        1PY         0.05999  -0.00177  -0.01879  -0.00395   0.00210
  31        1PZ         0.00980  -0.00219  -0.00753  -0.00434   0.00972
  32 11  H  1S          0.04115   0.00107   0.00472   0.01053  -0.00108
  33 12  H  1S         -0.00460   0.00041  -0.00051  -0.00190  -0.00956
  34 13  H  1S          0.00564   0.00123  -0.00752  -0.00255  -0.00194
                          21        22        23        24        25
  21 6   C  1S          1.12039
  22        1PX         0.00853   1.18366
  23        1PY         0.04467  -0.06457   1.10459
  24        1PZ        -0.01676  -0.00036  -0.00616   1.24776
  25 7   H  1S          0.51369   0.77672  -0.11432  -0.23071   0.79430
  26 8   H  1S          0.47748  -0.37029   0.47117  -0.49998   0.02483
  27 9   H  1S          0.50416  -0.02976   0.31109   0.76792   0.04765
  28 10  C  1S         -0.09412   0.02025  -0.08546   0.08614  -0.00497
  29        1PX         0.02025  -0.09199   0.08551  -0.05441   0.01805
  30        1PY        -0.08546   0.08551  -0.05712   0.10148  -0.00829
  31        1PZ        -0.08614   0.05441  -0.10148   0.07859   0.01260
  32 11  H  1S          0.01770  -0.03584   0.03417  -0.06510  -0.00884
  33 12  H  1S         -0.00497   0.01805  -0.00829  -0.01260   0.07574
  34 13  H  1S          0.01946   0.00355   0.00506  -0.01875   0.01136
                          26        27        28        29        30
  26 8   H  1S          0.76568
  27 9   H  1S          0.04169   0.79066
  28 10  C  1S          0.01770   0.01946   1.12039
  29        1PX        -0.03584   0.00355   0.00853   1.18366
  30        1PY         0.03417   0.00506   0.04467  -0.06457   1.10459
  31        1PZ         0.06510   0.01875   0.01676   0.00036   0.00616
  32 11  H  1S          0.30185   0.00320   0.47748  -0.37029   0.47117
  33 12  H  1S         -0.00884   0.01136   0.51369   0.77672  -0.11432
  34 13  H  1S          0.00320  -0.01053   0.50416  -0.02976   0.31109
                          31        32        33        34
  31        1PZ         1.24776
  32 11  H  1S          0.49998   0.76568
  33 12  H  1S          0.23071   0.02483   0.79430
  34 13  H  1S         -0.76792   0.04169   0.04765   0.79066
    Full Mulliken population analysis:
                           1         2         3         4         5
   1 1   O  1S          1.87395
   2        1PX         0.00000   1.56075
   3        1PY         0.00000   0.00000   1.69566
   4        1PZ         0.00000   0.00000   0.00000   1.28853
   5 2   C  1S          0.00000   0.00000   0.00000   0.00000   1.12260
   6        1PX         0.00000   0.00000   0.00000   0.00000   0.00000
   7        1PY         0.00000   0.00000   0.00000   0.00000   0.00000
   8        1PZ         0.00000   0.00000   0.00000   0.00000   0.00000
   9 3   C  1S          0.00000   0.00000   0.00000   0.00000   0.00000
  10        1PX         0.00000   0.00000   0.00000   0.00000   0.00000
  11        1PY         0.00000   0.00000   0.00000   0.00000   0.00000
  12        1PZ         0.00000   0.00000   0.00000   0.00000   0.00000
  13 4   O  1S          0.00000   0.00000   0.00000   0.00000   0.00000
  14        1PX         0.00000   0.00000   0.00000   0.00000   0.00000
  15        1PY         0.00000   0.00000   0.00000   0.00000   0.00000
  16        1PZ         0.00000   0.00000   0.00000   0.00000   0.00000
  17 5   O  1S          0.00000   0.00000   0.00000   0.00000   0.00000
  18        1PX         0.00000   0.00000   0.00000   0.00000   0.00000
  19        1PY         0.00000   0.00000   0.00000   0.00000   0.00000
  20        1PZ         0.00000   0.00000   0.00000   0.00000   0.00000
  21 6   C  1S          0.00000   0.00000   0.00000   0.00000   0.00000
  22        1PX         0.00000   0.00000   0.00000   0.00000   0.00000
  23        1PY         0.00000   0.00000   0.00000   0.00000   0.00000
  24        1PZ         0.00000   0.00000   0.00000   0.00000   0.00000
  25 7   H  1S          0.00000   0.00000   0.00000   0.00000   0.00000
  26 8   H  1S          0.00000   0.00000   0.00000   0.00000   0.00000
  27 9   H  1S          0.00000   0.00000   0.00000   0.00000   0.00000
  28 10  C  1S          0.00000   0.00000   0.00000   0.00000   0.00000
  29        1PX         0.00000   0.00000   0.00000   0.00000   0.00000
  30        1PY         0.00000   0.00000   0.00000   0.00000   0.00000
  31        1PZ         0.00000   0.00000   0.00000   0.00000   0.00000
  32 11  H  1S          0.00000   0.00000   0.00000   0.00000   0.00000
  33 12  H  1S          0.00000   0.00000   0.00000   0.00000   0.00000
  34 13  H  1S          0.00000   0.00000   0.00000   0.00000   0.00000
                           6         7         8         9        10
   6        1PX         0.68739
   7        1PY         0.00000   0.79901
   8        1PZ         0.00000   0.00000   0.75531
   9 3   C  1S          0.00000   0.00000   0.00000   1.12260
  10        1PX         0.00000   0.00000   0.00000   0.00000   0.68739
  11        1PY         0.00000   0.00000   0.00000   0.00000   0.00000
  12        1PZ         0.00000   0.00000   0.00000   0.00000   0.00000
  13 4   O  1S          0.00000   0.00000   0.00000   0.00000   0.00000
  14        1PX         0.00000   0.00000   0.00000   0.00000   0.00000
  15        1PY         0.00000   0.00000   0.00000   0.00000   0.00000
  16        1PZ         0.00000   0.00000   0.00000   0.00000   0.00000
  17 5   O  1S          0.00000   0.00000   0.00000   0.00000   0.00000
  18        1PX         0.00000   0.00000   0.00000   0.00000   0.00000
  19        1PY         0.00000   0.00000   0.00000   0.00000   0.00000
  20        1PZ         0.00000   0.00000   0.00000   0.00000   0.00000
  21 6   C  1S          0.00000   0.00000   0.00000   0.00000   0.00000
  22        1PX         0.00000   0.00000   0.00000   0.00000   0.00000
  23        1PY         0.00000   0.00000   0.00000   0.00000   0.00000
  24        1PZ         0.00000   0.00000   0.00000   0.00000   0.00000
  25 7   H  1S          0.00000   0.00000   0.00000   0.00000   0.00000
  26 8   H  1S          0.00000   0.00000   0.00000   0.00000   0.00000
  27 9   H  1S          0.00000   0.00000   0.00000   0.00000   0.00000
  28 10  C  1S          0.00000   0.00000   0.00000   0.00000   0.00000
  29        1PX         0.00000   0.00000   0.00000   0.00000   0.00000
  30        1PY         0.00000   0.00000   0.00000   0.00000   0.00000
  31        1PZ         0.00000   0.00000   0.00000   0.00000   0.00000
  32 11  H  1S          0.00000   0.00000   0.00000   0.00000   0.00000
  33 12  H  1S          0.00000   0.00000   0.00000   0.00000   0.00000
  34 13  H  1S          0.00000   0.00000   0.00000   0.00000   0.00000
                          11        12        13        14        15
  11        1PY         0.79901
  12        1PZ         0.00000   0.75531
  13 4   O  1S          0.00000   0.00000   1.88275
  14        1PX         0.00000   0.00000   0.00000   1.56653
  15        1PY         0.00000   0.00000   0.00000   0.00000   1.61640
  16        1PZ         0.00000   0.00000   0.00000   0.00000   0.00000
  17 5   O  1S          0.00000   0.00000   0.00000   0.00000   0.00000
  18        1PX         0.00000   0.00000   0.00000   0.00000   0.00000
  19        1PY         0.00000   0.00000   0.00000   0.00000   0.00000
  20        1PZ         0.00000   0.00000   0.00000   0.00000   0.00000
  21 6   C  1S          0.00000   0.00000   0.00000   0.00000   0.00000
  22        1PX         0.00000   0.00000   0.00000   0.00000   0.00000
  23        1PY         0.00000   0.00000   0.00000   0.00000   0.00000
  24        1PZ         0.00000   0.00000   0.00000   0.00000   0.00000
  25 7   H  1S          0.00000   0.00000   0.00000   0.00000   0.00000
  26 8   H  1S          0.00000   0.00000   0.00000   0.00000   0.00000
  27 9   H  1S          0.00000   0.00000   0.00000   0.00000   0.00000
  28 10  C  1S          0.00000   0.00000   0.00000   0.00000   0.00000
  29        1PX         0.00000   0.00000   0.00000   0.00000   0.00000
  30        1PY         0.00000   0.00000   0.00000   0.00000   0.00000
  31        1PZ         0.00000   0.00000   0.00000   0.00000   0.00000
  32 11  H  1S          0.00000   0.00000   0.00000   0.00000   0.00000
  33 12  H  1S          0.00000   0.00000   0.00000   0.00000   0.00000
  34 13  H  1S          0.00000   0.00000   0.00000   0.00000   0.00000
                          16        17        18        19        20
  16        1PZ         1.35352
  17 5   O  1S          0.00000   1.88275
  18        1PX         0.00000   0.00000   1.56653
  19        1PY         0.00000   0.00000   0.00000   1.61640
  20        1PZ         0.00000   0.00000   0.00000   0.00000   1.35352
  21 6   C  1S          0.00000   0.00000   0.00000   0.00000   0.00000
  22        1PX         0.00000   0.00000   0.00000   0.00000   0.00000
  23        1PY         0.00000   0.00000   0.00000   0.00000   0.00000
  24        1PZ         0.00000   0.00000   0.00000   0.00000   0.00000
  25 7   H  1S          0.00000   0.00000   0.00000   0.00000   0.00000
  26 8   H  1S          0.00000   0.00000   0.00000   0.00000   0.00000
  27 9   H  1S          0.00000   0.00000   0.00000   0.00000   0.00000
  28 10  C  1S          0.00000   0.00000   0.00000   0.00000   0.00000
  29        1PX         0.00000   0.00000   0.00000   0.00000   0.00000
  30        1PY         0.00000   0.00000   0.00000   0.00000   0.00000
  31        1PZ         0.00000   0.00000   0.00000   0.00000   0.00000
  32 11  H  1S          0.00000   0.00000   0.00000   0.00000   0.00000
  33 12  H  1S          0.00000   0.00000   0.00000   0.00000   0.00000
  34 13  H  1S          0.00000   0.00000   0.00000   0.00000   0.00000
                          21        22        23        24        25
  21 6   C  1S          1.12039
  22        1PX         0.00000   1.18366
  23        1PY         0.00000   0.00000   1.10459
  24        1PZ         0.00000   0.00000   0.00000   1.24776
  25 7   H  1S          0.00000   0.00000   0.00000   0.00000   0.79430
  26 8   H  1S          0.00000   0.00000   0.00000   0.00000   0.00000
  27 9   H  1S          0.00000   0.00000   0.00000   0.00000   0.00000
  28 10  C  1S          0.00000   0.00000   0.00000   0.00000   0.00000
  29        1PX         0.00000   0.00000   0.00000   0.00000   0.00000
  30        1PY         0.00000   0.00000   0.00000   0.00000   0.00000
  31        1PZ         0.00000   0.00000   0.00000   0.00000   0.00000
  32 11  H  1S          0.00000   0.00000   0.00000   0.00000   0.00000
  33 12  H  1S          0.00000   0.00000   0.00000   0.00000   0.00000
  34 13  H  1S          0.00000   0.00000   0.00000   0.00000   0.00000
                          26        27        28        29        30
  26 8   H  1S          0.76568
  27 9   H  1S          0.00000   0.79066
  28 10  C  1S          0.00000   0.00000   1.12039
  29        1PX         0.00000   0.00000   0.00000   1.18366
  30        1PY         0.00000   0.00000   0.00000   0.00000   1.10459
  31        1PZ         0.00000   0.00000   0.00000   0.00000   0.00000
  32 11  H  1S          0.00000   0.00000   0.00000   0.00000   0.00000
  33 12  H  1S          0.00000   0.00000   0.00000   0.00000   0.00000
  34 13  H  1S          0.00000   0.00000   0.00000   0.00000   0.00000
                          31        32        33        34
  31        1PZ         1.24776
  32 11  H  1S          0.00000   0.76568
  33 12  H  1S          0.00000   0.00000   0.79430
  34 13  H  1S          0.00000   0.00000   0.00000   0.79066
     Gross orbital populations:
                           1
   1 1   O  1S          1.87395
   2        1PX         1.56075
   3        1PY         1.69566
   4        1PZ         1.28853
   5 2   C  1S          1.12260
   6        1PX         0.68739
   7        1PY         0.79901
   8        1PZ         0.75531
   9 3   C  1S          1.12260
  10        1PX         0.68739
  11        1PY         0.79901
  12        1PZ         0.75531
  13 4   O  1S          1.88275
  14        1PX         1.56653
  15        1PY         1.61640
  16        1PZ         1.35352
  17 5   O  1S          1.88275
  18        1PX         1.56653
  19        1PY         1.61640
  20        1PZ         1.35352
  21 6   C  1S          1.12039
  22        1PX         1.18366
  23        1PY         1.10459
  24        1PZ         1.24776
  25 7   H  1S          0.79430
  26 8   H  1S          0.76568
  27 9   H  1S          0.79066
  28 10  C  1S          1.12039
  29        1PX         1.18366
  30        1PY         1.10459
  31        1PZ         1.24776
  32 11  H  1S          0.76568
  33 12  H  1S          0.79430
  34 13  H  1S          0.79066
          Condensed to atoms (all electrons):
               1          2          3          4          5          6
     1  O    6.418891   0.000000   0.000000   0.000000   0.000000   0.000000
     2  C    0.000000   3.364312   0.000000   0.000000   0.000000   0.000000
     3  C    0.000000   0.000000   3.364312   0.000000   0.000000   0.000000
     4  O    0.000000   0.000000   0.000000   6.419199   0.000000   0.000000
     5  O    0.000000   0.000000   0.000000   0.000000   6.419199   0.000000
     6  C    0.000000   0.000000   0.000000   0.000000   0.000000   4.656410
     7  H    0.000000   0.000000   0.000000   0.000000   0.000000   0.000000
     8  H    0.000000   0.000000   0.000000   0.000000   0.000000   0.000000
     9  H    0.000000   0.000000   0.000000   0.000000   0.000000   0.000000
    10  C    0.000000   0.000000   0.000000   0.000000   0.000000   0.000000
    11  H    0.000000   0.000000   0.000000   0.000000   0.000000   0.000000
    12  H    0.000000   0.000000   0.000000   0.000000   0.000000   0.000000
    13  H    0.000000   0.000000   0.000000   0.000000   0.000000   0.000000
               7          8          9         10         11         12
     1  O    0.000000   0.000000   0.000000   0.000000   0.000000   0.000000
     2  C    0.000000   0.000000   0.000000   0.000000   0.000000   0.000000
     3  C    0.000000   0.000000   0.000000   0.000000   0.000000   0.000000
     4  O    0.000000   0.000000   0.000000   0.000000   0.000000   0.000000
     5  O    0.000000   0.000000   0.000000   0.000000   0.000000   0.000000
     6  C    0.000000   0.000000   0.000000   0.000000   0.000000   0.000000
     7  H    0.794297   0.000000   0.000000   0.000000   0.000000   0.000000
     8  H    0.000000   0.765681   0.000000   0.000000   0.000000   0.000000
     9  H    0.000000   0.000000   0.790657   0.000000   0.000000   0.000000
    10  C    0.000000   0.000000   0.000000   4.656410   0.000000   0.000000
    11  H    0.000000   0.000000   0.000000   0.000000   0.765681   0.000000
    12  H    0.000000   0.000000   0.000000   0.000000   0.000000   0.794297
    13  H    0.000000   0.000000   0.000000   0.000000   0.000000   0.000000
              13
     1  O    0.000000
     2  C    0.000000
     3  C    0.000000
     4  O    0.000000
     5  O    0.000000
     6  C    0.000000
     7  H    0.000000
     8  H    0.000000
     9  H    0.000000
    10  C    0.000000
    11  H    0.000000
    12  H    0.000000
    13  H    0.790657
 Mulliken charges:
               1
     1  O   -0.418891
     2  C    0.635688
     3  C    0.635688
     4  O   -0.419199
     5  O   -0.419199
     6  C   -0.656410
     7  H    0.205703
     8  H    0.234319
     9  H    0.209343
    10  C   -0.656410
    11  H    0.234319
    12  H    0.205703
    13  H    0.209343
 Sum of Mulliken charges =   0.00000
 Mulliken charges with hydrogens summed into heavy atoms:
               1
     1  O   -0.418891
     2  C    0.635688
     3  C    0.635688
     4  O   -0.419199
     5  O   -0.419199
     6  C   -0.007044
    10  C   -0.007044
 Charge=              0.0000 electrons
 Dipole moment (field-independent basis, Debye):
    X=              1.9979    Y=              5.3974    Z=              0.0000  Tot=              5.7553
 N-N= 1.985206266304D+02 E-N=-3.463105047343D+02  KE=-2.226596965322D+01
 Symmetry A'   KE=-1.277495361462D+01
 Symmetry A"   KE=-9.491016038601D+00
 Orbital energies and kinetic energies (alpha):
                                 1                 2
   1         O                -1.201899         -1.075015
   2         O                -1.167600         -0.909162
   3         O                -1.149148         -0.870942
   4         O                -1.114329         -0.939627
   5         O                -0.942957         -0.865755
   6         O                -0.841908         -0.659406
   7         O                -0.796943         -0.660328
   8         O                -0.679830         -0.618328
   9         O                -0.657608         -0.536541
  10         O                -0.650564         -0.495259
  11         O                -0.611124         -0.420267
  12         O                -0.569962         -0.439362
  13         O                -0.569209         -0.445227
  14         O                -0.558439         -0.398883
  15         O                -0.539532         -0.366942
  16         O                -0.498052         -0.373755
  17         O                -0.459189         -0.372348
  18         O                -0.455296         -0.228942
  19         O                -0.425830         -0.231184
  20         O                -0.411757         -0.225712
  21         V                -0.022117         -0.202025
  22         V                -0.013530         -0.184278
  23         V                 0.007405         -0.161100
  24         V                 0.038422         -0.188266
  25         V                 0.078076         -0.156102
  26         V                 0.100533         -0.224896
  27         V                 0.111337         -0.065137
  28         V                 0.132397         -0.047141
  29         V                 0.134772         -0.075565
  30         V                 0.151297         -0.217168
  31         V                 0.167669         -0.229757
  32         V                 0.187559         -0.226917
  33         V                 0.189997         -0.243498
  34         V                 0.225301         -0.219839
 Total kinetic energy from orbitals=-2.226596965322D+01
 Calling FoFJK, ICntrl=      2127 FMM=F ISym2X=1 I1Cent= 0 IOpClX= 0 NMat=1 NMatS=1 NMatT=0.
 ***** Axes restored to original set *****
 -------------------------------------------------------------------
 Center     Atomic                   Forces (Hartrees/Bohr)
 Number     Number              X              Y              Z
 -------------------------------------------------------------------
      1        8           0.030613855    0.020340686    0.021089031
      2        6           0.053667859   -0.030311551   -0.067076807
      3        6          -0.063922374    0.063572134    0.013070627
      4        8           0.064550325   -0.069699190   -0.005009766
      5        8          -0.053064298    0.024203967    0.075154292
      6        6           0.030936025   -0.031408668   -0.098786660
      7        1           0.018750730    0.012784907   -0.002019699
      8        1           0.086492471   -0.107904906   -0.027957864
      9        1           0.013980283   -0.010123873   -0.003048166
     10        6          -0.086422978    0.062290404   -0.018796828
     11        1          -0.095904970    0.037720657    0.096361024
     12        1           0.009312169    0.020320624    0.004413458
     13        1          -0.008989096    0.008214809    0.012607359
 -------------------------------------------------------------------
 Cartesian Forces:  Max     0.107904906 RMS     0.050980517

 GradGradGradGradGradGradGradGradGradGradGradGradGradGradGradGradGradGrad
 Berny optimization.
 FormGI is forming the generalized inverse of G from B-inverse, IUseBI=4.
 Internal  Forces:  Max     1.105140130 RMS     0.223345378
 Search for a local minimum.
 Step number   1 out of a maximum of   57
 All quantities printed in internal units (Hartrees-Bohrs-Radians)
 Mixed Optimization -- RFO/linear search
 Second derivative matrix not updated -- first step.
 ITU=  0
     Eigenvalues ---    0.00237   0.00237   0.00501   0.00501   0.01295
     Eigenvalues ---    0.01295   0.07243   0.07243   0.07243   0.07243
     Eigenvalues ---    0.16000   0.16000   0.16000   0.16000   0.16000
     Eigenvalues ---    0.16000   0.25000   0.25000   0.25000   0.25000
     Eigenvalues ---    0.25000   0.28519   0.28519   0.37230   0.37230
     Eigenvalues ---    0.37230   0.37230   0.37230   0.37230   0.40989
     Eigenvalues ---    0.40989   0.80209   0.80209
 RFO step:  Lambda=-1.41569681D+00 EMin= 2.36824170D-03
 Linear search not attempted -- first point.
 Maximum step size (   0.300) exceeded in Quadratic search.
    -- Step size scaled by   0.338
 Iteration  1 RMS(Cart)=  0.33742763 RMS(Int)=  0.01706703
 Iteration  2 RMS(Cart)=  0.07692133 RMS(Int)=  0.00081065
 Iteration  3 RMS(Cart)=  0.00192497 RMS(Int)=  0.00003575
 Iteration  4 RMS(Cart)=  0.00000091 RMS(Int)=  0.00003575
 ClnCor:  largest displacement from symmetrization is 2.31D-13 for atom     5.
 Variable       Old X    -DE/DX   Delta X   Delta X   Delta X     New X
                                 (Linear)    (Quad)   (Total)
    R1        2.70231   0.18449   0.00000   0.03411   0.03411   2.73642
    R2        2.70231   0.18449   0.00000   0.03411   0.03411   2.73642
    R3        2.37803  -0.09389   0.00000  -0.01429  -0.01429   2.36374
    R4        2.91018  -0.03039   0.00000  -0.00603  -0.00603   2.90415
    R5        2.37803  -0.09389   0.00000  -0.01429  -0.01429   2.36374
    R6        2.91018  -0.03039   0.00000  -0.00603  -0.00603   2.90415
    R7        2.02201   0.01885   0.00000   0.00356   0.00356   2.02557
    R8        2.02201  -0.04934   0.00000  -0.00932  -0.00932   2.01269
    R9        2.02201   0.01731   0.00000   0.00327   0.00327   2.02527
   R10        2.02201  -0.04934   0.00000  -0.00932  -0.00932   2.01269
   R11        2.02201   0.01885   0.00000   0.00356   0.00356   2.02557
   R12        2.02201   0.01731   0.00000   0.00327   0.00327   2.02527
    A1        1.91063   1.10514   0.00000   0.22396   0.22396   2.13459
    A2        2.09440  -0.28710   0.00000  -0.05818  -0.05819   2.03621
    A3        2.09440   0.53812   0.00000   0.10905   0.10904   2.20344
    A4        2.09440  -0.25102   0.00000  -0.05087  -0.05088   2.04352
    A5        2.09440  -0.28710   0.00000  -0.05818  -0.05819   2.03621
    A6        2.09440   0.53812   0.00000   0.10905   0.10904   2.20344
    A7        2.09440  -0.25102   0.00000  -0.05087  -0.05088   2.04352
    A8        1.91063   0.01556   0.00000   0.00358   0.00352   1.91415
    A9        1.91063   0.06392   0.00000   0.01379   0.01374   1.92437
   A10        1.91063  -0.03665   0.00000  -0.00819  -0.00817   1.90246
   A11        1.91063   0.02682   0.00000   0.00642   0.00630   1.91694
   A12        1.91063  -0.00773   0.00000  -0.00184  -0.00184   1.90879
   A13        1.91063  -0.06192   0.00000  -0.01375  -0.01372   1.89691
   A14        1.91063   0.06392   0.00000   0.01379   0.01374   1.92437
   A15        1.91063   0.01556   0.00000   0.00358   0.00352   1.91415
   A16        1.91063  -0.03665   0.00000  -0.00819  -0.00817   1.90246
   A17        1.91063   0.02682   0.00000   0.00642   0.00630   1.91694
   A18        1.91063  -0.06192   0.00000  -0.01375  -0.01372   1.89691
   A19        1.91063  -0.00773   0.00000  -0.00184  -0.00184   1.90879
    D1       -2.61799   0.14811   0.00000   0.03498   0.03499  -2.58301
    D2        0.52360   0.17623   0.00000   0.04166   0.04165   0.56525
    D3        2.61799  -0.14811   0.00000  -0.03498  -0.03499   2.58301
    D4       -0.52360  -0.17623   0.00000  -0.04166  -0.04165  -0.56525
    D5       -1.57080  -0.01181   0.00000  -0.00242  -0.00246  -1.57326
    D6        0.52360   0.06971   0.00000   0.01607   0.01613   0.53973
    D7        2.61799   0.01057   0.00000   0.00266   0.00264   2.62064
    D8        1.57080   0.01630   0.00000   0.00426   0.00422   1.57502
    D9       -2.61799   0.09782   0.00000   0.02275   0.02281  -2.59518
   D10       -0.52360   0.03868   0.00000   0.00934   0.00933  -0.51427
   D11       -0.52360  -0.06971   0.00000  -0.01607  -0.01613  -0.53973
   D12        1.57080   0.01181   0.00000   0.00242   0.00246   1.57326
   D13       -2.61799  -0.01057   0.00000  -0.00266  -0.00264  -2.62064
   D14        2.61799  -0.09782   0.00000  -0.02275  -0.02281   2.59518
   D15       -1.57080  -0.01630   0.00000  -0.00426  -0.00422  -1.57502
   D16        0.52360  -0.03868   0.00000  -0.00934  -0.00933   0.51427
         Item               Value     Threshold  Converged?
 Maximum Force            1.105140     0.000450     NO 
 RMS     Force            0.223345     0.000300     NO 
 Maximum Displacement     0.895457     0.001800     NO 
 RMS     Displacement     0.408812     0.001200     NO 
 Predicted change in Energy=-4.663297D-01
 GradGradGradGradGradGradGradGradGradGradGradGradGradGradGradGradGradGrad

                          Input orientation:                          
 ---------------------------------------------------------------------
 Center     Atomic      Atomic             Coordinates (Angstroms)
 Number     Number       Type             X           Y           Z
 ---------------------------------------------------------------------
      1          8           0       -1.029030   -0.287343   -0.562635
      2          6           0        0.340225   -0.723581   -0.740655
      3          6           0       -1.409430    0.673339    0.451879
      4          8           0       -2.369132    1.427709    0.178944
      5          8           0        0.689721   -1.014470   -1.905916
      6          6           0        1.398173   -0.870133    0.364355
      7          1           0        1.934013    0.051536    0.475425
      8          1           0        0.934277   -1.131822    1.286686
      9          1           0        2.082526   -1.648392    0.091269
     10          6           0       -0.752815    0.847210    1.830431
     11          1           0       -0.375976   -0.085720    2.179731
     12          1           0        0.045367    1.559425    1.762693
     13          1           0       -1.487919    1.202240    2.524822
 ---------------------------------------------------------------------
                    Distance matrix (angstroms):
                    1          2          3          4          5
     1  O    0.000000
     2  C    1.448051   0.000000
     3  C    1.448051   2.536694   0.000000
     4  O    2.299395   3.579711   1.250838   0.000000
     5  O    2.299395   1.250838   3.579711   4.434801   0.000000
     6  C    2.662756   1.536808   3.205090   4.416678   2.382618
     7  H    3.157852   2.149376   3.400854   4.527562   2.890573
     8  H    2.826252   2.151667   3.073836   4.323286   3.204104
     9  H    3.458587   2.140791   4.208828   5.411779   2.516051
    10  C    2.662756   3.205090   1.536808   2.382618   4.416678
    11  H    2.826252   3.073836   2.151667   3.204104   4.323286
    12  H    3.157852   3.400854   2.149376   2.890573   4.527562
    13  H    3.458587   4.208828   2.140791   2.516051   5.411779
                    6          7          8          9         10
     6  C    0.000000
     7  H    1.071883   0.000000
     8  H    1.065071   1.748701   0.000000
     9  H    1.071729   1.749111   1.736187   0.000000
    10  C    3.118556   3.112585   2.656784   4.158350   0.000000
    11  H    2.656784   2.873944   1.899638   3.584391   1.065071
    12  H    3.112585   2.738206   2.873944   4.151358   1.071883
    13  H    4.158350   4.151358   3.584391   5.176521   1.071729
                   11         12         13
    11  H    0.000000
    12  H    1.748701   0.000000
    13  H    1.736187   1.749111   0.000000
 Stoichiometry    C4H6O3
 Framework group  CS[SG(O),X(C4H6O2)]
 Deg. of freedom    17
 Full point group                 CS      NOp   2
 Largest Abelian subgroup         CS      NOp   2
 Largest concise Abelian subgroup CS      NOp   2
                         Standard orientation:                         
 ---------------------------------------------------------------------
 Center     Atomic      Atomic             Coordinates (Angstroms)
 Number     Number       Type             X           Y           Z
 ---------------------------------------------------------------------
      1          8           0       -0.622880   -0.674804    0.000000
      2          6           0       -0.114891   -0.195122    1.268347
      3          6           0       -0.114891   -0.195122   -1.268347
      4          8           0       -0.114891   -1.009918   -2.217401
      5          8           0       -0.114891   -1.009918    2.217401
      6          6           0        0.414639    1.217938    1.559278
      7          1           0        1.468884    1.254472    1.369103
      8          1           0       -0.087462    1.932661    0.949819
      9          1           0        0.230733    1.454533    2.588260
     10          6           0        0.414639    1.217938   -1.559278
     11          1           0       -0.087462    1.932661   -0.949819
     12          1           0        1.468884    1.254472   -1.369103
     13          1           0        0.230733    1.454533   -2.588260
 ---------------------------------------------------------------------
 Rotational constants (GHZ):      4.7675176      1.8037636      1.3566290
 Standard basis: VSTO-6G (5D, 7F)
 There are    18 symmetry adapted cartesian basis functions of A'  symmetry.
 There are    16 symmetry adapted cartesian basis functions of A"  symmetry.
 There are    18 symmetry adapted basis functions of A'  symmetry.
 There are    16 symmetry adapted basis functions of A"  symmetry.
    34 basis functions,   204 primitive gaussians,    34 cartesian basis functions
    20 alpha electrons       20 beta electrons
       nuclear repulsion energy       193.0362604717 Hartrees.
 Integral buffers will be    262144 words long.
 Regular integral format.
 Two-electron integral symmetry is turned off.
 Do NDO integrals.
 One-electron integrals computed using PRISM.
 NBasis=    34 RedAO= T EigKep=  7.07D-01  NBF=    18    16
 NBsUse=    34 1.00D-06 EigRej= -1.00D+00 NBFU=    18    16
 Initial guess from the checkpoint file:  "C:\G09W\gxx.chk"
 B after Tr=     0.000000    0.000000    0.000000
         Rot=    0.998611    0.000000    0.000000   -0.052691 Ang=  -6.04 deg.
 Initial guess orbital symmetries:
       Occupied  (A') (A") (A') (A') (A") (A") (A') (A') (A') (A")
                 (A') (A') (A") (A") (A') (A") (A") (A') (A') (A")
       Virtual   (A") (A') (A') (A") (A') (A') (A") (A") (A') (A')
                 (A") (A") (A') (A")
 Overlap will be assumed to be unity.
 Keep J ints in memory in canonical form, NReq=889143.
 Requested convergence on RMS density matrix=1.00D-08 within 128 cycles.
 Requested convergence on MAX density matrix=1.00D-06.
 Requested convergence on             energy=1.00D-06.
 No special actions if energy rises.
 Fock symm off for IB=2 I1=    1 I=   19 J=    2 Cut=1.00D-07 Err=1.11D-03
 Fock matrix is not symmetric: symmetry in diagonalization turned off.
 SCF Done:  E(RPM6) = -0.177894695881     A.U. after   13 cycles
            NFock= 12  Conv=0.52D-08     -V/T= 0.9919
 Calling FoFJK, ICntrl=      2127 FMM=F ISym2X=1 I1Cent= 0 IOpClX= 0 NMat=1 NMatS=1 NMatT=0.
 ***** Axes restored to original set *****
 -------------------------------------------------------------------
 Center     Atomic                   Forces (Hartrees/Bohr)
 Number     Number              X              Y              Z
 -------------------------------------------------------------------
      1        8           0.030936579    0.017490475    0.024901225
      2        6           0.026753588   -0.014528999   -0.058304339
      3        6          -0.047549928    0.044794702   -0.007660370
      4        8           0.058970812   -0.058246477    0.002216786
      5        8          -0.039948390    0.020730313    0.069638374
      6        6          -0.045881980    0.011249735   -0.019711649
      7        1           0.009050231    0.011141930    0.001756034
      8        1          -0.004163918   -0.004841628    0.017797553
      9        1           0.011187629   -0.010513088   -0.004859521
     10        6          -0.006463548   -0.020221822   -0.046578559
     11        1           0.007661888   -0.014283315    0.009737292
     12        1           0.010041989    0.010350113    0.001080070
     13        1          -0.010594953    0.006878060    0.009987104
 -------------------------------------------------------------------
 Cartesian Forces:  Max     0.069638374 RMS     0.028274411

 GradGradGradGradGradGradGradGradGradGradGradGradGradGradGradGradGradGrad
 Berny optimization.
 Using GEDIIS/GDIIS optimizer.
 FormGI is forming the generalized inverse of G from B-inverse, IUseBI=4.
 GSVD:  received Info=                   1 from GESDD.
 Internal  Forces:  Max     0.080856876 RMS     0.022018176
 Search for a local minimum.
 Step number   2 out of a maximum of   57
 All quantities printed in internal units (Hartrees-Bohrs-Radians)
 Mixed Optimization -- RFO/linear search
 Update second derivatives using D2CorX and points    1    2
 DE= -1.09D-01 DEPred=-4.66D-01 R= 2.34D-01
 Trust test= 2.34D-01 RLast= 3.12D-01 DXMaxT set to 3.00D-01
 ITU=  0  0
 Use linear search instead of GDIIS.
     Eigenvalues ---    0.00237   0.00239   0.00500   0.00501   0.01295
     Eigenvalues ---    0.01373   0.07124   0.07196   0.07288   0.07292
     Eigenvalues ---    0.16000   0.16000   0.16000   0.16000   0.16000
     Eigenvalues ---    0.16025   0.24974   0.25000   0.25000   0.25000
     Eigenvalues ---    0.28500   0.28519   0.37167   0.37208   0.37230
     Eigenvalues ---    0.37230   0.37230   0.37230   0.40202   0.40989
     Eigenvalues ---    0.79162   0.80209   5.00546
 RFO step:  Lambda=-2.78301014D-02 EMin= 2.36824170D-03
 Quartic linear search produced a step of -0.26477.
 Iteration  1 RMS(Cart)=  0.10526226 RMS(Int)=  0.00630651
 Iteration  2 RMS(Cart)=  0.01025804 RMS(Int)=  0.00005447
 Iteration  3 RMS(Cart)=  0.00006110 RMS(Int)=  0.00003844
 Iteration  4 RMS(Cart)=  0.00000000 RMS(Int)=  0.00003844
 ClnCor:  largest displacement from symmetrization is 3.95D-13 for atom    11.
 Variable       Old X    -DE/DX   Delta X   Delta X   Delta X     New X
                                 (Linear)    (Quad)   (Total)
    R1        2.73642  -0.04543  -0.00903  -0.05199  -0.06102   2.67540
    R2        2.73642  -0.04543  -0.00903  -0.05199  -0.06102   2.67540
    R3        2.36374  -0.08086   0.00378  -0.08449  -0.08071   2.28304
    R4        2.90415  -0.02480   0.00160  -0.06158  -0.05998   2.84416
    R5        2.36374  -0.08086   0.00378  -0.08449  -0.08071   2.28304
    R6        2.90415  -0.02480   0.00160  -0.06158  -0.05998   2.84416
    R7        2.02557   0.01429  -0.00094   0.02865   0.02771   2.05327
    R8        2.01269   0.01842   0.00247   0.02754   0.03001   2.04270
    R9        2.02527   0.01602  -0.00087   0.03163   0.03077   2.05604
   R10        2.01269   0.01842   0.00247   0.02754   0.03001   2.04270
   R11        2.02557   0.01429  -0.00094   0.02865   0.02771   2.05327
   R12        2.02527   0.01602  -0.00087   0.03163   0.03077   2.05604
    A1        2.13459  -0.00104  -0.05930   0.10554   0.04625   2.18084
    A2        2.03621  -0.01369   0.01541  -0.06437  -0.04896   1.98725
    A3        2.20344  -0.01570  -0.02887   0.01120  -0.01767   2.18577
    A4        2.04352   0.02939   0.01347   0.05315   0.06662   2.11014
    A5        2.03621  -0.01369   0.01541  -0.06437  -0.04896   1.98725
    A6        2.20344  -0.01570  -0.02887   0.01120  -0.01767   2.18577
    A7        2.04352   0.02939   0.01347   0.05315   0.06662   2.11014
    A8        1.91415   0.00123  -0.00093   0.00101   0.00006   1.91421
    A9        1.92437   0.00659  -0.00364   0.03017   0.02647   1.95084
   A10        1.90246  -0.00185   0.00216  -0.00609  -0.00400   1.89846
   A11        1.91694  -0.00239  -0.00167  -0.01338  -0.01506   1.90188
   A12        1.90879  -0.00206   0.00049  -0.01216  -0.01170   1.89709
[...]
 Electronic      0.100000D+01          0.000000          0.000000
 Translational   0.405096D+08          7.607558         17.517049
 Rotational      0.236823D+06          5.374423         12.375067
 ***** Axes restored to original set *****
 -------------------------------------------------------------------
 Center     Atomic                   Forces (Hartrees/Bohr)
 Number     Number              X              Y              Z
 -------------------------------------------------------------------
      1        8          -0.000019104   -0.000035380    0.000013414
      2        6           0.000032846    0.000005733   -0.000036155
      3        6          -0.000017498    0.000045927   -0.000001841
      4        8           0.000049586   -0.000026840    0.000003917
      5        8          -0.000015442    0.000025079    0.000048239
      6        6           0.000020309   -0.000027909   -0.000050264
      7        1          -0.000006449    0.000004261    0.000012719
      8        1           0.000012380   -0.000000730    0.000004564
      9        1          -0.000031672    0.000009324    0.000012540
     10        6          -0.000052813    0.000030471   -0.000000426
     11        1           0.000003006    0.000006755    0.000010953
     12        1           0.000011173   -0.000009808    0.000000709
     13        1           0.000013679   -0.000026883   -0.000018370
 -------------------------------------------------------------------
 Cartesian Forces:  Max     0.000052813 RMS     0.000024675
 FormGI is forming the generalized inverse of G from B-inverse, IUseBI=4.
 GSVD:  received Info=                   1 from GESDD.

 GradGradGradGradGradGradGradGradGradGradGradGradGradGradGradGradGradGrad
 Berny optimization.
 Internal  Forces:  Max     0.000084502 RMS     0.000022964
 Search for a local minimum.
 Step number   1 out of a maximum of    2
 All quantities printed in internal units (Hartrees-Bohrs-Radians)
 Second derivative matrix not updated -- analytic derivatives used.
 ITU=  0
     Eigenvalues ---   -0.00307   0.00035   0.00172   0.00565   0.03518
     Eigenvalues ---    0.03661   0.04214   0.04457   0.04525   0.04526
     Eigenvalues ---    0.09901   0.09923   0.10217   0.10703   0.10760
     Eigenvalues ---    0.10971   0.12889   0.12897   0.17547   0.17683
     Eigenvalues ---    0.25666   0.25708   0.25737   0.25799   0.27740
     Eigenvalues ---    0.27926   0.32478   0.34755   0.42515   0.42779
     Eigenvalues ---    0.61955   0.94573   0.96647
 Eigenvalue     1 is  -3.07D-03 should be greater than     0.000000 Eigenvector:
                          D2        D4        D1        D3        D11
   1                    0.40811   0.40811   0.33194   0.33194  -0.23373
                          D6        D5        D12       D7        D13
   1                   -0.23373  -0.23371  -0.23371  -0.22760  -0.22760
 Angle between quadratic step and forces=  80.60 degrees.
 Linear search not attempted -- first point.
 Iteration  1 RMS(Cart)=  0.00352270 RMS(Int)=  0.00000825
 Iteration  2 RMS(Cart)=  0.00001430 RMS(Int)=  0.00000004
 Iteration  3 RMS(Cart)=  0.00000000 RMS(Int)=  0.00000004
 ClnCor:  largest displacement from symmetrization is 3.27D-12 for atom    12.
 Variable       Old X    -DE/DX   Delta X   Delta X   Delta X     New X
                                 (Linear)    (Quad)   (Total)
    R1        2.64465   0.00000   0.00000  -0.00003  -0.00003   2.64462
    R2        2.64465   0.00000   0.00000  -0.00003  -0.00003   2.64462
    R3        2.26715  -0.00006   0.00000  -0.00005  -0.00005   2.26710
    R4        2.80895  -0.00002   0.00000  -0.00006  -0.00006   2.80889
    R5        2.26715  -0.00006   0.00000  -0.00005  -0.00005   2.26710
    R6        2.80895  -0.00002   0.00000  -0.00006  -0.00006   2.80889
    R7        2.07789   0.00001   0.00000   0.00000   0.00000   2.07789
    R8        2.07785   0.00000   0.00000   0.00003   0.00003   2.07789
    R9        2.09065  -0.00003   0.00000  -0.00013  -0.00013   2.09051
   R10        2.07785   0.00000   0.00000   0.00003   0.00003   2.07789
   R11        2.07789   0.00001   0.00000   0.00000   0.00000   2.07789
   R12        2.09065  -0.00003   0.00000  -0.00013  -0.00013   2.09051
    A1        2.35746   0.00008   0.00000   0.00028   0.00028   2.35774
    A2        1.97368  -0.00003   0.00000  -0.00008  -0.00008   1.97360
    A3        2.09091   0.00005   0.00000   0.00005   0.00005   2.09096
    A4        2.21860  -0.00001   0.00000   0.00003   0.00003   2.21863
    A5        1.97368  -0.00003   0.00000  -0.00008  -0.00008   1.97360
    A6        2.09091   0.00005   0.00000   0.00005   0.00005   2.09096
    A7        2.21860  -0.00001   0.00000   0.00003   0.00003   2.21863
    A8        1.96384   0.00000   0.00000   0.00035   0.00035   1.96420
    A9        1.96442   0.00001   0.00000  -0.00022  -0.00022   1.96420
   A10        1.92010   0.00000   0.00000   0.00003   0.00003   1.92013
   A11        1.89203  -0.00001   0.00000  -0.00021  -0.00021   1.89182
   A12        1.85851   0.00001   0.00000   0.00026   0.00026   1.85877
   A13        1.85900  -0.00001   0.00000  -0.00022  -0.00022   1.85878
   A14        1.96442   0.00001   0.00000  -0.00022  -0.00022   1.96420
   A15        1.96384   0.00000   0.00000   0.00035   0.00035   1.96420
   A16        1.92010   0.00000   0.00000   0.00003   0.00003   1.92013
   A17        1.89203  -0.00001   0.00000  -0.00021  -0.00021   1.89182
   A18        1.85900  -0.00001   0.00000  -0.00022  -0.00022   1.85878
   A19        1.85851   0.00001   0.00000   0.00026   0.00026   1.85877
    D1        3.13601   0.00001   0.00000   0.00561   0.00561  -3.14156
    D2       -0.00636   0.00001   0.00000   0.00640   0.00640   0.00004
    D3       -3.13601  -0.00001   0.00000  -0.00561  -0.00561   3.14156
    D4        0.00636  -0.00001   0.00000  -0.00640  -0.00640  -0.00004
    D5       -1.07460   0.00000   0.00000   0.00269   0.00269  -1.07192
    D6        1.06936   0.00000   0.00000   0.00251   0.00251   1.07187
    D7        3.13946  -0.00001   0.00000   0.00211   0.00211   3.14157
    D8        2.06609   0.00001   0.00000   0.00359   0.00359   2.06968
    D9       -2.07313   0.00000   0.00000   0.00342   0.00342  -2.06972
   D10       -0.00303   0.00000   0.00000   0.00302   0.00302  -0.00002
   D11       -1.06936   0.00000   0.00000  -0.00251  -0.00251  -1.07187
   D12        1.07460   0.00000   0.00000  -0.00269  -0.00269   1.07192
   D13       -3.13946   0.00001   0.00000  -0.00211  -0.00211  -3.14157
   D14        2.07313   0.00000   0.00000  -0.00342  -0.00342   2.06972
   D15       -2.06609  -0.00001   0.00000  -0.00359  -0.00359  -2.06968
   D16        0.00303   0.00000   0.00000  -0.00302  -0.00302   0.00002
         Item               Value     Threshold  Converged?
 Maximum Force            0.000085     0.000450     YES
 RMS     Force            0.000023     0.000300     YES
 Maximum Displacement     0.008416     0.001800     NO 
 RMS     Displacement     0.003524     0.001200     NO 
 Predicted change in Energy=-2.029664D-07
 GradGradGradGradGradGradGradGradGradGradGradGradGradGradGradGradGradGrad

 1|1|UNPC-DESKTOP-KC5UJLK|Freq|RPM6|ZDO|C4H6O3|23122|17-Mar-2022|0||#N 
 Geom=AllCheck Guess=TCheck SCRF=Check GenChk RPM6/ZDO Freq||Energy Cal
 culation(GC)||0,1|O,-0.8142339838,0.0112127437,-0.5972166706|C,0.37583
 4798,-0.7066940595,-0.7612596038|C,-1.4082366066,0.7177031251,0.454732
 0889|O,-2.4700312712,1.1931323978,0.1616513608|O,0.4954120027,-1.17446
 84949,-1.859542621|C,1.3322062091,-0.8201104362,0.370982093|H,1.718901
 932,0.1568611743,0.6950966556|H,0.8949365636,-1.3271315673,1.243187059
 5|H,2.2104218508,-1.4199271121,0.0661776024|C,-0.713718367,0.813349524
 3,1.7654483021|H,-0.5544633871,-0.1699350539,2.2310725751|H,0.25740026
 63,1.3237196601,1.6912304873|H,-1.3244300058,1.4022878616,2.4754704599
 ||Version=IA32W-G09RevD.01|State=1-A'|HF=-0.2064404|RMSD=3.869e-010|RM
 SF=2.468e-005|ZeroPoint=0.0891175|Thermal=0.0965588|Dipole=1.493543,-0
 .0159152,2.2099304|DipoleDeriv=-1.7507348,0.9557805,0.771683,0.9562143
 ,-1.2864736,-0.6508827,0.7711747,-0.6515193,-1.1451636,2.2160762,-1.02
 82431,-0.5464351,-0.9102632,1.4466648,0.6405332,-0.2147281,0.4575659,1
 .6340678,1.9728613,-0.8067242,-0.3178149,-0.9256468,1.4371214,0.600839
 8,-0.6484176,0.7851901,1.8868261,-1.2366701,0.4942748,0.1167088,0.4461
 606,-0.708118,-0.1380641,-0.01377,-0.0671167,-0.6172322,-0.7343169,0.2
 443688,0.1850202,0.2927635,-0.7063408,-0.3614182,0.3151704,-0.4327773,
 -1.1213626,-1.0616409,0.0984375,-0.0701503,0.0946925,-0.8898812,-0.003
 2448,-0.0799383,0.0021586,-0.9487968,0.2658978,0.0305449,-0.0016345,0.
 0531258,0.2492953,0.0363975,-0.0052981,0.0062658,0.2185994,0.2051308,-
 0.0017369,-0.0298077,-0.0131685,0.2698106,-0.0428933,0.003198,-0.02933
 05,0.2582416,0.3176126,-0.0349745,-0.003006,-0.0539668,0.2786689,-0.02
 13315,-0.0545957,0.0071609,0.1934564,-0.9132026,0.0341843,-0.020166,0.
 0378377,-0.8878091,-0.085177,-0.0102707,-0.090446,-1.0993071,0.2278253
 ,0.0055789,-0.0204604,-0.0139274,0.2501093,-0.0621885,-0.0172259,-0.03
 03601,0.2552485,0.2603086,0.0268738,0.0258713,0.0357116,0.2696926,0.02
 93477,-0.0072685,0.0133826,0.2037914,0.2308511,-0.0183661,-0.0898064,0
 .0004653,0.2772555,0.0580831,-0.0380282,0.0298268,0.2816314|Polar=52.3
 620078,-21.4901541,33.3266798,-4.4872553,14.4488368,49.0693479|HyperPo
 lar=154.2128656,-67.304454,37.6431089,-1.2828857,18.022655,-26.3616174
 ,53.728387,-57.6426657,67.000687,127.0218209|PG=CS [SG(O1),X(C4H6O2)]|
 NImag=1||0.32998594,-0.20361492,0.18223281,-0.09037805,0.13692238,0.26
 116211,-0.15355547,0.05874302,-0.01922013,0.39450241,0.05486027,-0.060
 05803,0.01439861,-0.09583371,0.31737166,-0.02977836,0.02018106,-0.0248
 1841,0.06330488,0.23356861,0.91325746,-0.02577645,0.00280047,0.0216433
 7,-0.04516060,0.02800644,0.02440460,0.79521524,0.00668374,-0.05838083,
 -0.05492435,0.03845387,-0.03707844,-0.01483578,-0.25704570,0.31936451,
 0.03220100,-0.06070755,-0.15427463,0.05361090,-0.03103322,-0.01418211,
 0.22216513,-0.00144291,0.51055178,-0.09259376,0.07321947,0.04370551,0.
 02049078,-0.00827282,0.00187988,-0.61032275,0.23302957,-0.18908809,0.7
 2403705,0.06873411,-0.03489708,-0.02527909,-0.01068739,0.00914223,-0.0
 0341345,0.24294647,-0.16049822,0.08930479,-0.32045762,0.17637232,0.031
 49965,-0.01859985,0.00841377,-0.00521202,0.00053410,-0.00216287,-0.161
 73139,0.07431848,-0.09924660,0.17500107,-0.06176556,0.11722181,-0.0308
 3575,0.04401018,0.05584020,-0.04868331,0.01641413,0.06160373,0.0021921
 7,-0.00324712,-0.01255836,-0.00672195,0.00451687,0.00353209,0.07931729
 ,0.04850120,-0.03478946,-0.05478406,0.00643496,-0.15673320,-0.25527391
 ,-0.00078788,0.00889020,0.01132428,0.00584304,-0.00492409,-0.00262252,
 -0.06065005,0.17248186,0.06803942,-0.06147161,-0.05345186,0.03431997,-
 0.24019625,-0.66465107,-0.00551878,0.00731119,0.01638775,0.00695967,-0
 .00445519,-0.00259112,-0.08109614,0.31646069,0.76583203,-0.03316291,0.
 02052292,-0.01473400,-0.13631795,0.00185363,-0.07575256,0.00349929,-0.
 00540266,-0.00661704,-0.00236080,0.00164588,0.00105047,0.00750431,0.00
 024972,-0.02321122,0.43061480,0.01918850,0.00544149,0.00606515,0.00370
 853,-0.07987315,0.01336732,-0.00274730,-0.00019781,0.00078492,0.001046
 10,-0.00055103,0.00018601,-0.00210787,0.01828107,-0.01697020,-0.008917
 12,0.39941671,-0.01847399,0.00813056,0.00818393,-0.07070571,0.01053689
 ,-0.16057942,0.00074603,-0.00329079,-0.00991801,-0.00064598,0.00112631
 ,0.00207243,-0.02967741,-0.01339730,-0.05802577,0.03406847,0.00734984,
 0.46371278,0.00042454,0.00123397,0.00077404,-0.01105827,-0.01976286,-0
 .01763945,-0.00215676,0.00083205,-0.00064981,0.00067173,-0.00035009,0.
 00029150,-0.00039816,0.00168531,-0.00070384,-0.05574904,-0.05694601,-0
 .01875693,0.06606233,0.00291451,-0.00301498,-0.00119565,-0.01178045,0.
 00275436,-0.01162767,-0.00002520,0.00178595,0.00247118,0.00029912,-0.0
 0044621,-0.00048267,0.00072511,-0.00047509,0.00237910,-0.05769285,-0.1
 7953084,-0.04738086,0.07250397,0.21147047,0.00249830,-0.00058407,-0.00
 177001,-0.02056658,-0.01941131,-0.01308386,-0.00052552,0.00095404,0.00
 276727,0.00021805,-0.00031125,-0.00054682,0.00045818,0.00163306,-0.002
 28444,-0.01929109,-0.04729906,-0.04763597,0.03003555,0.06123622,0.0582
 0956,-0.00269716,0.00032636,0.00180663,0.01140313,0.00718631,-0.014524
 71,-0.00073991,0.00053785,-0.00194311,0.00019257,0.00000878,0.00040729
 ,-0.00257231,-0.00165269,-0.00162637,-0.06322944,-0.03441809,0.0587674
 8,-0.00184210,-0.00878963,0.00611737,0.07046117,-0.00032954,-0.0003665
 4,-0.00093507,0.00140546,0.00222334,0.01204011,0.00173017,-0.00024636,
 0.00074328,-0.00060636,0.00012412,-0.00025985,-0.00007016,-0.00086461,
 -0.00131171,-0.03413702,-0.07224810,0.06772495,-0.01319432,-0.01480411
 ,0.01445658,0.04017684,0.08068406,0.00287989,-0.00306880,-0.00131900,-
 0.00559763,0.01651091,-0.03500313,-0.00116155,0.00174052,0.00341565,0.
 00057490,-0.00047709,-0.00064947,-0.00107672,-0.00151057,0.00027683,0.
 05812511,0.06822731,-0.14739233,0.00115214,0.00258225,0.00447134,-0.06
 635914,-0.08572241,0.18449613,-0.00000813,-0.00036949,-0.00120051,-0.0
 3137771,0.01589449,-0.01266398,-0.00111204,0.00093743,0.00034385,0.000
 59242,-0.00037380,0.00002531,0.00019761,0.00039059,0.00232042,-0.14625
 287,0.07608529,0.03979636,0.00489444,0.00250629,0.00062304,-0.01112958
 ,0.00431466,0.01179571,0.18402444,-0.00091180,0.00064145,0.00005825,0.
 01275105,0.00115800,0.00700754,0.00081584,-0.00025406,-0.00047907,-0.0
 0038470,0.00012088,0.00004316,-0.00015207,-0.00112715,-0.00160369,0.07
 719624,-0.08864979,-0.02763863,0.01351365,-0.01782691,-0.01054221,-0.0
 0351071,0.00678955,0.00171850,-0.09932163,0.09913721,-0.00264795,0.000
 85185,-0.00153393,-0.02116468,0.01174244,0.00564012,-0.00001319,-0.000
 27495,-0.00040994,0.00000673,0.00005225,0.00004880,0.00083431,-0.00078
 589,-0.00150031,0.04276078,-0.02928101,-0.05070115,0.00434159,-0.00776
 880,0.00056967,0.01672680,-0.00586257,-0.00801272,-0.04105453,0.031531
 96,0.05609828,0.01391625,0.00007954,0.00038753,-0.00599675,0.00109683,
 -0.00304644,-0.10657563,-0.00830422,-0.05885946,-0.03052955,0.01323210
 ,-0.04480075,0.00130650,-0.00044288,0.00082380,-0.00253448,0.00597129,
 0.00598470,-0.00054049,-0.00043830,-0.00033019,-0.00054210,-0.00051686
 ,-0.00028110,0.00039346,-0.00040241,-0.00001172,0.43525935,0.00142114,
 0.00593879,-0.01951713,-0.00155405,-0.00028654,0.00228836,-0.01011677,
 -0.07968395,-0.00688198,0.01557853,0.01803942,0.00890909,0.00016037,-0
 .00051388,-0.00102497,0.00542763,-0.00018879,-0.00430883,-0.00052806,-
 0.00101388,0.00023741,-0.00018972,-0.00091604,0.00013031,-0.00052335,-
 0.00002313,0.00001395,-0.01084298,0.39953131,0.00411911,-0.02159307,-0
 .03939253,-0.01041476,0.00635750,-0.00033324,-0.06395592,-0.00411370,-
 0.19051094,-0.03832150,0.00535256,-0.01975027,0.00251620,-0.00197035,-
 0.00163203,0.00447967,-0.00347776,0.00158601,-0.00014372,-0.00023560,-
 0.00103523,0.00010028,0.00031277,-0.00123460,-0.00035423,0.00020486,-0
 .00030156,0.03597689,0.00461136,0.45895363,-0.00259774,0.00100803,0.00
 130564,0.00250214,-0.00061072,0.00133797,0.00033780,0.01087136,-0.0158
 5796,-0.00192753,-0.00087738,-0.00017939,-0.00055524,0.00016598,-0.000
 27385,-0.00086259,-0.00041191,-0.00038006,-0.00070931,-0.00002571,0.00
 071037,0.00046942,0.00060001,-0.00017938,-0.00015160,0.00012854,0.0001
 1288,-0.03570235,0.02313850,-0.01102628,0.03864384,0.00220206,-0.00299
 538,-0.00231468,-0.00232740,0.00184361,-0.00087498,0.00657548,0.002206
 93,0.01560224,-0.00191604,-0.00042088,-0.00155973,0.00056332,-0.000458
 58,-0.00010632,0.00008642,-0.00101601,0.00045949,-0.00000520,0.0004470
 1,0.00002770,-0.00032756,0.00062405,0.00035065,0.00014750,0.00007247,-
 0.00010322,0.02298847,-0.18135673,0.06953283,-0.03046485,0.21376584,-0
 .00039798,-0.00097048,0.00121042,0.00117065,-0.00110289,-0.00191637,-0
 .01298128,0.02591578,-0.02392139,-0.00136612,-0.00215882,-0.00081169,-
 0.00018634,0.00043047,0.00068103,-0.00019921,0.00039077,-0.00081414,0.
 00070231,-0.00000397,-0.00014207,0.00032410,-0.00068354,0.00061247,0.0
 0017961,-0.00011369,0.00004941,-0.01053742,0.06883820,-0.06581080,0.01
 877021,-0.08822715,0.08323169,-0.00310418,0.00294678,0.00272452,0.0038
 6956,-0.00144459,0.00068624,-0.02159532,-0.01243544,-0.01901095,0.0008
 2183,0.00078537,0.00029631,-0.00086286,0.00045144,0.00015444,-0.001071
 38,-0.00024421,-0.00051783,0.00047915,-0.00034534,-0.00008927,0.000251
 54,0.00048119,0.00004470,-0.00003039,0.00019929,0.00007872,-0.17583539
 ,-0.07657177,0.01180832,0.00114555,-0.00566057,0.00222849,0.21424254,0
 .00071968,-0.00038079,0.00066329,-0.00004672,-0.00022061,-0.00186021,-
 0.01032616,0.00245979,-0.00578991,0.00120330,-0.00091604,0.00059076,0.
 00001605,0.00011806,0.00065477,-0.00050449,-0.00084925,0.00039711,0.00
 086805,0.00058095,-0.00032246,0.00046792,-0.00094792,-0.00033826,0.000
 22001,-0.00005376,-0.00006793,-0.07593151,-0.07275243,0.00599488,-0.01
 838981,-0.01505872,0.00664040,0.09490984,0.08123727,0.00164051,0.00085
 362,-0.00087547,-0.00007132,-0.00113624,-0.00125249,-0.02790509,-0.012
 81252,-0.00225223,-0.00023050,0.00213241,-0.00306348,-0.00002257,0.000
 16964,0.00042350,-0.00013161,0.00017429,-0.00066896,0.00038835,0.00012
 323,0.00050465,0.00007621,-0.00032037,0.00029201,0.00012215,-0.0001187
 9,0.00005539,0.01246735,0.00606946,-0.03432803,0.00701453,0.00697962,0
 .00173830,-0.00729727,-0.00486453,0.04026255,0.00000506,-0.00090661,-0
 .00265502,-0.00061808,0.00061256,0.00018798,0.01219492,-0.00491073,-0.
 00373600,-0.00235013,0.00087679,-0.00018026,0.00011173,-0.00018852,-0.
 00018711,-0.00007709,-0.00020726,-0.00020511,-0.00007801,0.00014852,0.
 00014175,-0.00002524,0.00014596,0.00008303,-0.00004005,0.00007870,0.00
 003021,-0.09261897,0.05460056,0.06521618,-0.00059238,0.00813830,0.0022
 9291,-0.01831057,0.00679391,0.01394922,0.10239885,-0.00036922,0.000628
 68,0.00084254,0.00073289,-0.00024332,-0.00056689,-0.00182597,0.0016322
 5,-0.01389615,0.00141869,-0.00114539,0.00070864,-0.00017871,0.00011490
 ,0.00033394,-0.00032828,-0.00003474,0.00029134,0.00014959,0.00007336,-
 0.00007465,0.00018429,-0.00005136,-0.00014334,0.00009203,0.00001528,-0
 .00004806,0.05351088,-0.08677440,-0.06097634,0.01486799,-0.01765353,-0
 .00895514,-0.00307199,0.00678355,0.00275024,-0.06518217,0.09665475,-0.
 00120181,0.00005617,-0.00153436,0.00054649,-0.00076917,-0.00091464,0.0
 0483343,-0.01854497,-0.03840676,0.00130674,-0.00010805,0.00106567,-0.0
 0016725,0.00032645,0.00053547,-0.00054753,0.00048236,0.00018060,0.0002
 0821,-0.00009667,-0.00002411,0.00012705,-0.00018225,0.00004687,0.00006
 680,-0.00006819,-0.00000201,0.06222684,-0.05936517,-0.10621045,-0.0013
 5472,0.00023348,0.00589317,0.00889357,-0.00169790,-0.00083578,-0.07493
 782,0.07973389,0.14020633||0.00001910,0.00003538,-0.00001341,-0.000032
 85,-0.00000573,0.00003615,0.00001750,-0.00004593,0.00000184,-0.0000495
 9,0.00002684,-0.00000392,0.00001544,-0.00002508,-0.00004824,-0.0000203
 1,0.00002791,0.00005026,0.00000645,-0.00000426,-0.00001272,-0.00001238
 ,0.00000073,-0.00000456,0.00003167,-0.00000932,-0.00001254,0.00005281,
 -0.00003047,0.00000043,-0.00000301,-0.00000675,-0.00001095,-0.00001117
 ,0.00000981,-0.00000071,-0.00001368,0.00002688,0.00001837|||@


 KNOWING HOW CONTENTED, FREE, AND JOYFUL IS LIFE IN
 THE REALMS OF SCIENCE, ONE FERVENTLY WISHES THAT
 MANY WOULD ENTER HER PORTALS.
   --  DMITRI IVANOVICH MENDELEEV
 "FIRST PRINCIPLES OF CHEMISTRY", LONGMANS, GREEN,
 AND CO.  LONDON, 1891
 Job cpu time:       0 days  0 hours  0 minutes  5.0 seconds.
 File lengths (MBytes):  RWF=      6 Int=      0 D2E=      0 Chk=      2 Scr=      1
 Normal termination of Gaussian 09 at Thu Mar 17 12:42:12 2022.
