 Entering Link 1 = C:\G09W\l1.exe PID=      6116.
  
 Copyright (c) 1988,1990,1992,1993,1995,1998,2003,2009,2013,
            Gaussian, Inc.  All Rights Reserved.
  
 This is part of the Gaussian(R) 09 program.  It is based on
 the Gaussian(R) 03 system (copyright 2003, Gaussian, Inc.),
 the Gaussian(R) 98 system (copyright 1998, Gaussian, Inc.),
 the Gaussian(R) 94 system (copyright 1995, Gaussian, Inc.),
 the Gaussian 92(TM) system (copyright 1992, Gaussian, Inc.),
 the Gaussian 90(TM) system (copyright 1990, Gaussian, Inc.),
 the Gaussian 88(TM) system (copyright 1988, Gaussian, Inc.),
 the Gaussian 86(TM) system (copyright 1986, Carnegie Mellon
 University), and the Gaussian 82(TM) system (copyright 1983,
 Carnegie Mellon University). Gaussian is a federally registered
 trademark of Gaussian, Inc.
  
 This software contains proprietary and confidential information,
 including trade secrets, belonging to Gaussian, Inc.
  
 This software is provided under written license and may be
 used, copied, transmitted, or stored only in accord with that
 written license.
  
 The following legend is applicable only to US Government
 contracts under FAR:
  
                    RESTRICTED RIGHTS LEGEND
  
 Use, reproduction and disclosure by the US Government is
 subject to restrictions as set forth in subparagraphs (a)
 and (c) of the Commercial Computer Software - Restricted
 Rights clause in FAR 52.227-19.
  
 Gaussian, Inc.
 340 Quinnipiac St., Bldg. 40, Wallingford CT 06492
  
  
 ---------------------------------------------------------------
 Warning -- This program may not be used in any manner that
 competes with the business of Gaussian, Inc. or will provide
 assistance to any competitor of Gaussian, Inc.  The licensee
 of this program is prohibited from giving any competitor of
 Gaussian, Inc. access to this program.  By using this program,
 the user acknowledges that Gaussian, Inc. is engaged in the
 business of creating and licensing software in the field of
 computational chemistry and represents and warrants to the
 licensee that it is not a competitor of Gaussian, Inc. and that
 it will not use this program in any manner prohibited above.
 ---------------------------------------------------------------
  

 Cite this work as:
 Gaussian 09, Revision D.01,
 M. J. Frisch, G. W. Trucks, H. B. Schlegel, G. E. Scuseria, 
 M. A. Robb, J. R. Cheeseman, G. Scalmani, V. Barone, B. Mennucci, 
 G. A. Petersson, H. Nakatsuji, M. Caricato, X. Li, H. P. Hratchian, 
 A. F. Izmaylov, J. Bloino, G. Zheng, J. L. Sonnenberg, M. Hada, 
 M. Ehara, K. Toyota, R. Fukuda, J. Hasegawa, M. Ishida, T. Nakajima, 
 Y. Honda, O. Kitao, H. Nakai, T. Vreven, J. A. Montgomery, Jr., 
 J. E. Peralta, F. Ogliaro, M. Bearpark, J. J. Heyd, E. Brothers, 
 K. N. Kudin, V. N. Staroverov, T. Keith, R. Kobayashi, J. Normand, 
 K. Raghavachari, A. Rendell, J. C. Burant, S. S. Iyengar, J. Tomasi, 
 M. Cossi, N. Rega, J. M. Millam, M. Klene, J. E. Knox, J. B. Cross, 
 V. Bakken, C. Adamo, J. Jaramillo, R. Gomperts, R. E. Stratmann, 
 O. Yazyev, A. J. Austin, R. Cammi, C. Pomelli, J. W. Ochterski, 
 R. L. Martin, K. Morokuma, V. G. Zakrzewski, G. A. Voth, 
 P. Salvador, J. J. Dannenberg, S. Dapprich, A. D. Daniels, 
 O. Farkas, J. B. Foresman, J. V. Ortiz, J. Cioslowski, 
 and D. J. Fox, Gaussian, Inc., Wallingford CT, 2013.
 
 ******************************************
 Gaussian 09:  IA32W-G09RevD.01 24-Apr-2013
                17-Mar-2022 
 ******************************************
 %nprocshared=4
 Will use up to    4 processors via shared memory.
 %mem=1GB
 -----------------------------------------
 # opt freq pm6 pop=full geom=connectivity
 -----------------------------------------
 1/14=-1,18=20,19=15,26=1,38=1,57=2/1,3;
 2/9=110,12=2,17=6,18=5,40=1/2;
 3/5=2,16=1,25=1,41=3900000,71=1/1,2,3;
 4/35=1/1;
 5/5=2,35=1,38=5/2;
 6/7=3,28=1/1;
 7//1,2,3,16;
 1/14=-1,18=20,19=15,26=1/3(2);
 2/9=110/2;
 99//99;
 2/9=110/2;
 3/5=2,16=1,25=1,41=3900000,71=1,135=20/1,2,3;
 4/5=5,16=3,35=1/1;
 5/5=2,35=1,38=5/2;
 7//1,2,3,16;
 1/14=-1,18=20,19=15,26=1/3(-5);
 2/9=110/2;
 6/7=3,19=2,28=1/1;
 99/9=1/99;
 ----------------------
 Energy Calculation(GC)
 ----------------------
 Symbolic Z-matrix:
 Charge =  0 Multiplicity = 1
 C                    -1.86787  -0.54053   1.83408 
 H                    -1.32749  -1.4503    2.14269 
 H                    -2.0897    0.04213   2.74291 
 H                    -2.83321  -0.85355   1.40421 
 C                    -1.10071   0.28106   0.85831 
 O                    -1.38343   1.31198   0.32465 
 O                     0.11552  -0.3898    0.63308 
 C                     1.33713   0.19493   0.24861 
 O                     1.46781   1.36846   0.06763 
 C                     2.32378  -0.91399   0.13721 
 H                     1.88408  -1.8785    0.43831 
 H                     2.67387  -1.04169  -0.89981 
 H                     3.2017   -0.72371   0.77447 
 

 GradGradGradGradGradGradGradGradGradGradGradGradGradGradGradGradGradGrad
 Berny optimization.
 Initialization pass.
                           ----------------------------
                           !    Initial Parameters    !
                           ! (Angstroms and Degrees)  !
 --------------------------                            --------------------------
 ! Name  Definition              Value          Derivative Info.                !
 --------------------------------------------------------------------------------
 ! R1    R(1,2)                  1.1022         estimate D2E/DX2                !
 ! R2    R(1,3)                  1.1021         estimate D2E/DX2                !
 ! R3    R(1,4)                  1.1021         estimate D2E/DX2                !
 ! R4    R(1,5)                  1.4885         estimate D2E/DX2                !
 ! R5    R(5,6)                  1.1948         estimate D2E/DX2                !
 ! R6    R(5,7)                  1.4071         estimate D2E/DX2                !
 ! R7    R(7,8)                  1.4079         estimate D2E/DX2                !
 ! R8    R(8,9)                  1.1946         estimate D2E/DX2                !
 ! R9    R(8,10)                 1.4885         estimate D2E/DX2                !
 ! R10   R(10,11)                1.1019         estimate D2E/DX2                !
 ! R11   R(10,12)                1.1019         estimate D2E/DX2                !
 ! R12   R(10,13)                1.1014         estimate D2E/DX2                !
 ! A1    A(2,1,3)              107.707          estimate D2E/DX2                !
 ! A2    A(2,1,4)              107.7099         estimate D2E/DX2                !
 ! A3    A(2,1,5)              112.7333         estimate D2E/DX2                !
 ! A4    A(3,1,4)              107.1869         estimate D2E/DX2                !
 ! A5    A(3,1,5)              110.6403         estimate D2E/DX2                !
 ! A6    A(4,1,5)              110.6408         estimate D2E/DX2                !
 ! A7    A(1,5,6)              130.3227         estimate D2E/DX2                !
 ! A8    A(1,5,7)              106.6934         estimate D2E/DX2                !
 ! A9    A(6,5,7)              122.9839         estimate D2E/DX2                !
 ! A10   A(5,7,8)              126.5622         estimate D2E/DX2                !
 ! A11   A(7,8,9)              122.9775         estimate D2E/DX2                !
 ! A12   A(7,8,10)             106.6296         estimate D2E/DX2                !
 ! A13   A(9,8,10)             130.3929         estimate D2E/DX2                !
 ! A14   A(8,10,11)            111.5398         estimate D2E/DX2                !
 ! A15   A(8,10,12)            111.553          estimate D2E/DX2                !
 ! A16   A(8,10,13)            110.8763         estimate D2E/DX2                !
 ! A17   A(11,10,12)           106.4087         estimate D2E/DX2                !
 ! A18   A(11,10,13)           108.1297         estimate D2E/DX2                !
 ! A19   A(12,10,13)           108.1366         estimate D2E/DX2                !
 ! D1    D(2,1,5,6)            179.9574         estimate D2E/DX2                !
 ! D2    D(2,1,5,7)             -0.0432         estimate D2E/DX2                !
 ! D3    D(3,1,5,6)            -59.3647         estimate D2E/DX2                !
 ! D4    D(3,1,5,7)            120.6347         estimate D2E/DX2                !
 ! D5    D(4,1,5,6)             59.2754         estimate D2E/DX2                !
 ! D6    D(4,1,5,7)           -120.7252         estimate D2E/DX2                !
 ! D7    D(1,5,7,8)           -152.812          estimate D2E/DX2                !
 ! D8    D(6,5,7,8)             27.1875         estimate D2E/DX2                !
 ! D9    D(5,7,8,9)             -0.0095         estimate D2E/DX2                !
 ! D10   D(5,7,8,10)           179.9878         estimate D2E/DX2                !
 ! D11   D(7,8,10,11)           -3.6468         estimate D2E/DX2                !
 ! D12   D(7,8,10,12)          115.1975         estimate D2E/DX2                !
 ! D13   D(7,8,10,13)         -124.2158         estimate D2E/DX2                !
 ! D14   D(9,8,10,11)          176.3503         estimate D2E/DX2                !
 ! D15   D(9,8,10,12)          -64.8054         estimate D2E/DX2                !
 ! D16   D(9,8,10,13)           55.7813         estimate D2E/DX2                !
 --------------------------------------------------------------------------------
 Trust Radius=3.00D-01 FncErr=1.00D-07 GrdErr=1.00D-07
 Number of steps in this run=     57 maximum allowed number of steps=    100.
 GradGradGradGradGradGradGradGradGradGradGradGradGradGradGradGradGradGrad

                          Input orientation:                          
 ---------------------------------------------------------------------
 Center     Atomic      Atomic             Coordinates (Angstroms)
 Number     Number       Type             X           Y           Z
 ---------------------------------------------------------------------
      1          6           0       -1.867871   -0.540529    1.834080
      2          1           0       -1.327493   -1.450299    2.142692
      3          1           0       -2.089701    0.042126    2.742906
      4          1           0       -2.833213   -0.853549    1.404210
      5          6           0       -1.100710    0.281059    0.858312
      6          8           0       -1.383434    1.311977    0.324651
      7          8           0        0.115516   -0.389799    0.633077
      8          6           0        1.337131    0.194929    0.248612
      9          8           0        1.467809    1.368459    0.067632
     10          6           0        2.323776   -0.913990    0.137205
     11          1           0        1.884085   -1.878503    0.438310
     12          1           0        2.673868   -1.041687   -0.899806
     13          1           0        3.201705   -0.723713    0.774471
 ---------------------------------------------------------------------
                    Distance matrix (angstroms):
                    1          2          3          4          5
     1  C    0.000000
     2  H    1.102239   0.000000
     3  H    1.102116   1.780042   0.000000
     4  H    1.102113   1.780073   1.774021   0.000000
     5  C    1.488511   2.167640   2.141701   2.141706   0.000000
     6  O    2.438203   3.307351   2.821222   2.820782   1.194788
     7  O    2.323565   2.342194   3.082355   3.082971   1.407120
     8  C    3.650568   3.659855   4.241229   4.452694   2.514403
     9  O    4.229816   4.479396   4.644580   5.022206   2.899122
    10  C    4.537484   4.200163   5.213694   5.310696   3.698005
    11  H    4.220844   3.660944   4.979051   4.923047   3.707979
    12  H    5.324724   5.043278   6.093897   5.972590   4.368991
    13  H    5.182367   4.786814   5.697387   6.069074   4.418979
                    6          7          8          9         10
     6  O    0.000000
     7  O    2.288672   0.000000
     8  C    2.941947   1.407858   0.000000
     9  O    2.863361   2.289082   1.194573   0.000000
    10  C    4.328218   2.323161   1.488483   2.438666   0.000000
    11  H    4.568234   2.319916   2.152734   3.294458   1.101943
    12  H    4.847755   3.052844   2.152893   2.863446   1.101936
    13  H    5.036851   3.107419   2.144077   2.807703   1.101396
                   11         12         13
    11  H    0.000000
    12  H    1.764815   0.000000
    13  H    1.784004   1.784075   0.000000
 Stoichiometry    C4H6O3
 Framework group  C1[X(C4H6O3)]
 Deg. of freedom    33
 Full point group                 C1      NOp   1
 Largest Abelian subgroup         C1      NOp   1
 Largest concise Abelian subgroup C1      NOp   1
                         Standard orientation:                         
 ---------------------------------------------------------------------
 Center     Atomic      Atomic             Coordinates (Angstroms)
 Number     Number       Type             X           Y           Z
 ---------------------------------------------------------------------
      1          6           0       -2.225846   -0.957543    0.243640
      2          1           0       -1.742906   -1.941191    0.362533
      3          1           0       -2.746820   -0.723765    1.186292
      4          1           0       -2.996025   -1.054559   -0.538707
      5          6           0       -1.258950    0.119890   -0.102651
      6          8           0       -1.437489    1.284508   -0.300915
      7          8           0        0.010857   -0.482702   -0.169445
      8          6           0        1.249864    0.144053    0.063156
      9          8           0        1.350301    1.298711    0.352433
     10          6           0        2.296225   -0.897689   -0.125218
     11          1           0        1.851841   -1.885401   -0.328260
     12          1           0        2.947331   -0.666863   -0.983731
     13          1           0        2.929473   -0.984621    0.771728
 ---------------------------------------------------------------------
 Rotational constants (GHZ):      5.2325334      1.8595877      1.4379137
 Standard basis: VSTO-6G (5D, 7F)
 There are    34 symmetry adapted cartesian basis functions of A   symmetry.
 There are    34 symmetry adapted basis functions of A   symmetry.
    34 basis functions,   204 primitive gaussians,    34 cartesian basis functions
    20 alpha electrons       20 beta electrons
       nuclear repulsion energy       195.0297077094 Hartrees.
 Integral buffers will be    262144 words long.
 Regular integral format.
 Two-electron integral symmetry is turned off.
 Do NDO integrals.
 One-electron integrals computed using PRISM.
 NBasis=    34 RedAO= F EigKep=  0.00D+00  NBF=    34
 NBsUse=    34 1.00D-04 EigRej=  0.00D+00 NBFU=    34
 Simple Huckel Guess.
 Overlap will be assumed to be unity.
 Keep J ints in memory in canonical form, NReq=889142.
 Requested convergence on RMS density matrix=1.00D-08 within 128 cycles.
 Requested convergence on MAX density matrix=1.00D-06.
 Requested convergence on             energy=1.00D-06.
 No special actions if energy rises.
 SCF Done:  E(RPM6) = -0.219515233028     A.U. after   13 cycles
            NFock= 12  Conv=0.77D-08     -V/T= 0.9901

 **********************************************************************

            Population analysis using the SCF density.

 **********************************************************************

 Orbital symmetries:
       Occupied  (A) (A) (A) (A) (A) (A) (A) (A) (A) (A) (A) (A)
                 (A) (A) (A) (A) (A) (A) (A) (A)
       Virtual   (A) (A) (A) (A) (A) (A) (A) (A) (A) (A) (A) (A)
                 (A) (A)
 The electronic state is 1-A.
 Alpha  occ. eigenvalues --   -1.20524  -1.19550  -1.12037  -1.03965  -0.98895
 Alpha  occ. eigenvalues --   -0.84035  -0.73203  -0.65684  -0.63578  -0.63024
 Alpha  occ. eigenvalues --   -0.58790  -0.56517  -0.55249  -0.52312  -0.51874
 Alpha  occ. eigenvalues --   -0.50890  -0.50036  -0.45289  -0.43085  -0.40499
 Alpha virt. eigenvalues --    0.00176   0.02384   0.03453   0.09327   0.11105
 Alpha virt. eigenvalues --    0.12167   0.15519   0.15977   0.17114   0.17185
 Alpha virt. eigenvalues --    0.17730   0.18092   0.21095   0.21120
     Molecular Orbital Coefficients:
                           1         2         3         4         5
                           O         O         O         O         O
     Eigenvalues --    -1.20524  -1.19550  -1.12037  -1.03965  -0.98895
   1 1   C  1S          0.06214   0.08853   0.09146  -0.39322   0.49205
   2        1PX         0.02373   0.02674   0.05815  -0.07266   0.01406
   3        1PY         0.05336   0.05902   0.00698  -0.04113   0.03386
   4        1PZ        -0.01223  -0.01627  -0.00752   0.01947  -0.00883
   5 2   H  1S          0.01260   0.02221   0.05263  -0.16938   0.20454
   6 3   H  1S          0.02608   0.03538   0.02659  -0.15262   0.21418
   7 4   H  1S          0.02504   0.03611   0.02497  -0.15329   0.21431
   8 5   C  1S          0.33792   0.33639   0.17665  -0.26473   0.16475
   9        1PX         0.00238  -0.05826   0.21848   0.01422  -0.20230
  10        1PY         0.22365   0.21787  -0.18349   0.25400  -0.15227
  11        1PZ        -0.03436  -0.04056   0.01477  -0.04519   0.05495
  12 6   O  1S          0.49088   0.51125  -0.17397   0.23335  -0.10841
  13        1PX         0.04660   0.02677   0.04665   0.00970  -0.06770
  14        1PY        -0.23646  -0.24200   0.00454   0.03633  -0.04551
  15        1PZ         0.04187   0.04029  -0.00403  -0.00707   0.01655
  16 7   O  1S          0.12887  -0.00418   0.80900   0.00193  -0.21352
  17        1PX        -0.00393  -0.10926  -0.00488   0.33462   0.00062
  18        1PY         0.12444  -0.00067   0.14486   0.00332  -0.08961
  19        1PZ         0.01861  -0.01853   0.04253  -0.00383   0.00835
  20 8   C  1S          0.34124  -0.33438   0.16947   0.27300   0.15795
  21        1PX        -0.01599  -0.03993  -0.20920   0.03746   0.20681
  22        1PY         0.22669  -0.20952  -0.18920  -0.25325  -0.14035
  23        1PZ         0.05297  -0.05689  -0.05800  -0.06478  -0.01426
  24 9   O  1S          0.50093  -0.49935  -0.18124  -0.23087  -0.10306
  25        1PX        -0.03149   0.01072  -0.04797   0.01421   0.06896
  26        1PY        -0.23949   0.23587   0.00638  -0.03757  -0.04198
  27        1PZ        -0.06090   0.05711  -0.00105  -0.01020  -0.00337
  28 10  C  1S          0.06049  -0.08952   0.08654   0.40985   0.47501
  29        1PX        -0.02684   0.03237  -0.05726  -0.07953  -0.01726
  30        1PY         0.05224  -0.05675   0.00336   0.03918   0.02959
  31        1PZ         0.01088  -0.01238  -0.00258   0.00329   0.00743
  32 11  H  1S          0.01189  -0.02380   0.05153   0.17863   0.19879
  33 12  H  1S          0.02399  -0.03441   0.02512   0.16042   0.20523
  34 13  H  1S          0.02530  -0.03630   0.02305   0.15817   0.20713
                           6         7         8         9        10
                           O         O         O         O         O
     Eigenvalues --    -0.84035  -0.73203  -0.65684  -0.63578  -0.63024
   1 1   C  1S          0.30627   0.13595  -0.05793   0.01909   0.07453
   2        1PX        -0.16420  -0.14412   0.01019   0.03886  -0.20917
   3        1PY        -0.07347  -0.20515   0.27978  -0.07618  -0.20472
   4        1PZ         0.04753   0.04430   0.00091   0.27463   0.05001
   5 2   H  1S          0.13564   0.14127  -0.18030   0.08106   0.08813
   6 3   H  1S          0.19507   0.10282   0.00351   0.13622   0.10042
   7 4   H  1S          0.18702   0.11720  -0.05069  -0.12491   0.11967
   8 5   C  1S         -0.22942  -0.31219   0.13814  -0.04294  -0.04179
   9        1PX        -0.22362   0.03160  -0.26944   0.17857   0.24876
  10        1PY         0.08390   0.00920   0.08062   0.05332   0.15738
  11        1PZ         0.04704  -0.04645   0.11560   0.34176  -0.09160
  12 6   O  1S          0.13117   0.34566  -0.26536   0.07703  -0.13048
  13        1PX        -0.09986  -0.04396  -0.13639   0.13674   0.27812
  14        1PY         0.09549   0.29136  -0.28597   0.16570  -0.07942
  15        1PZ         0.01221  -0.07470   0.15579   0.28872  -0.04352
  16 7   O  1S         -0.00191   0.27989  -0.00960  -0.10385  -0.21063
  17        1PX         0.49949   0.00713   0.32770  -0.08716   0.01181
  18        1PY         0.00626  -0.22002   0.00995   0.12323   0.45439
  19        1PZ         0.05228  -0.06664   0.09775   0.45629  -0.13699
  20 8   C  1S          0.22903  -0.30868  -0.14949  -0.01700  -0.04270
  21        1PX        -0.22587  -0.03464  -0.30110  -0.11189  -0.24465
  22        1PY        -0.08463   0.01338  -0.08008   0.00410   0.17817
  23        1PZ        -0.02905  -0.00606   0.00744   0.33535  -0.19773
  24 9   O  1S         -0.12920   0.34990   0.27758  -0.08562  -0.09483
  25        1PX        -0.09658   0.02469  -0.18684  -0.12928  -0.25167
  26        1PY        -0.09424   0.29401   0.30059  -0.13112  -0.00038
  27        1PZ        -0.02575   0.06969   0.10238   0.26672  -0.22547
  28 10  C  1S         -0.31664   0.12782   0.05934   0.03552   0.06689
  29        1PX        -0.17436   0.14771   0.02370   0.10157   0.19628
  30        1PY         0.07263  -0.19263  -0.28876  -0.11552  -0.15684
  31        1PZ         0.00910  -0.04172  -0.04654   0.21941  -0.19983
  32 11  H  1S         -0.13839   0.13639   0.18973   0.02691   0.08652
  33 12  H  1S         -0.19546   0.10822   0.02468  -0.06636   0.18488
  34 13  H  1S         -0.19780   0.10125   0.03044   0.17240   0.01094
                          11        12        13        14        15
                           O         O         O         O         O
     Eigenvalues --    -0.58790  -0.56517  -0.55249  -0.52312  -0.51874
   1 1   C  1S         -0.00829   0.00826  -0.01064  -0.00007   0.00814
   2        1PX         0.12856  -0.22140  -0.42571  -0.07755   0.39145
   3        1PY         0.12479  -0.18263   0.31618   0.21939  -0.24036
   4        1PZ         0.36877   0.20054   0.06996   0.38898   0.18937
   5 2   H  1S         -0.01366   0.06414  -0.31856  -0.13071   0.28752
   6 3   H  1S          0.18090   0.16712   0.21968   0.29474  -0.04939
   7 4   H  1S         -0.24419   0.02599   0.14539  -0.17101  -0.27206
   8 5   C  1S          0.00587  -0.01225  -0.06693  -0.00372   0.00948
   9        1PX        -0.00890   0.19766  -0.06773   0.00953  -0.11687
  10        1PY        -0.01078   0.26490   0.07658  -0.04931   0.01876
  11        1PZ         0.32677  -0.01898   0.01355  -0.09613  -0.05554
  12 6   O  1S          0.06593  -0.22892  -0.04915   0.03238  -0.04594
  13        1PX        -0.03114   0.30624  -0.12839  -0.01481  -0.11114
  14        1PY         0.14352  -0.30624  -0.03908   0.04271  -0.14223
  15        1PZ         0.35426   0.09026   0.05634  -0.18119  -0.07577
  16 7   O  1S          0.04053   0.00981   0.16255   0.01291   0.01177
  17        1PX        -0.01845   0.02797  -0.00329  -0.09651   0.17952
  18        1PY        -0.05642   0.00446   0.02805  -0.03341  -0.00911
  19        1PZ         0.00509  -0.06048  -0.06428  -0.28434  -0.14069
  20 8   C  1S          0.00234   0.00785  -0.06554   0.00269  -0.01184
  21        1PX         0.09690   0.21422   0.04024   0.03156  -0.08759
  22        1PY         0.03680  -0.24400   0.10861   0.10014   0.02039
  23        1PZ        -0.29461  -0.00791   0.03257  -0.06707  -0.12575
  24 9   O  1S          0.02769   0.21896  -0.08333  -0.07818   0.02270
  25        1PX         0.10859   0.28294   0.09583   0.00384  -0.08170
  26        1PY         0.11199   0.29916  -0.09874  -0.13401   0.11879
  27        1PZ        -0.32917   0.14335  -0.00817  -0.19111  -0.20513
  28 10  C  1S         -0.00958  -0.00826  -0.00707  -0.00254  -0.00633
  29        1PX        -0.01428  -0.23046   0.43178  -0.24586   0.29802
  30        1PY         0.15589   0.19611   0.24245  -0.36646   0.15393
  31        1PZ        -0.36438   0.13886   0.15941   0.27892   0.35802
  32 11  H  1S         -0.04799  -0.07857  -0.28845   0.26337  -0.22691
  33 12  H  1S          0.19734  -0.14346   0.12207  -0.31278  -0.05162
  34 13  H  1S         -0.21463  -0.03025   0.24362   0.07956   0.31901
                          16        17        18        19        20
                           O         O         O         O         O
     Eigenvalues --    -0.50890  -0.50036  -0.45289  -0.43085  -0.40499
   1 1   C  1S         -0.01855  -0.03843  -0.02431  -0.02816   0.08905
   2        1PX         0.05361  -0.08261  -0.09644  -0.00867   0.20378
   3        1PY        -0.09466  -0.25549  -0.01027  -0.16153   0.18693
   4        1PZ         0.35081  -0.15273   0.02879   0.02518  -0.06890
   5 2   H  1S          0.09965   0.11744  -0.02746   0.08434  -0.02333
   6 3   H  1S          0.17418  -0.12442   0.03884  -0.02476  -0.04554
   7 4   H  1S         -0.20888   0.11801   0.02682  -0.01479  -0.04105
   8 5   C  1S         -0.03678  -0.07285  -0.01963  -0.03074   0.05235
   9        1PX        -0.06342  -0.04373   0.01273  -0.01476  -0.06672
  10        1PY         0.08800   0.22429   0.03145   0.02704  -0.06215
  11        1PZ        -0.18864   0.12127  -0.06588   0.00207   0.02475
  12 6   O  1S         -0.09708  -0.14832  -0.02568  -0.00419   0.01815
  13        1PX        -0.07277  -0.01619   0.01734  -0.55181   0.57045
  14        1PY        -0.27471  -0.26663  -0.15734  -0.04165   0.12611
  15        1PZ        -0.30483   0.42503  -0.40633   0.02103  -0.09161
  16 7   O  1S          0.08878   0.18368   0.01604   0.00358   0.00087
  17        1PX         0.03019  -0.00283  -0.02966  -0.00388   0.34925
  18        1PY        -0.20844  -0.39321  -0.15778   0.52322   0.00222
  19        1PZ        -0.02588  -0.05980   0.72905   0.06509  -0.03438
  20 8   C  1S         -0.03378  -0.07605  -0.01564  -0.03343  -0.05171
  21        1PX        -0.01619   0.06620   0.01415   0.01356  -0.07044
  22        1PY         0.05907   0.21638   0.03238   0.02921   0.06037
  23        1PZ         0.22153  -0.00381  -0.05372   0.00546   0.00986
  24 9   O  1S         -0.08350  -0.15535  -0.00810  -0.00455  -0.01839
  25        1PX        -0.02617   0.10027   0.11069   0.57561   0.55293
  26        1PY        -0.27130  -0.30977   0.08550  -0.02324  -0.11687
  27        1PZ         0.36378  -0.21155  -0.45410   0.05675   0.04329
  28 10  C  1S         -0.02229  -0.03916  -0.00791  -0.02962  -0.08670
  29        1PX         0.11561   0.04337   0.01181   0.01542   0.21229
  30        1PY         0.00446  -0.25001  -0.03467  -0.17111  -0.17652
  31        1PZ        -0.35768   0.03087   0.00496  -0.03372  -0.02816
  32 11  H  1S          0.00603   0.13685   0.01596   0.09031   0.02040
  33 12  H  1S          0.23895  -0.05695  -0.00617  -0.01949   0.04110
  34 13  H  1S         -0.17208   0.03131   0.00397  -0.02203   0.04543
                          21        22        23        24        25
                           V         V         V         V         V
     Eigenvalues --     0.00176   0.02384   0.03453   0.09327   0.11105
   1 1   C  1S          0.03026   0.12270  -0.06767  -0.16347  -0.12263
   2        1PX         0.04114   0.17048  -0.09671  -0.26674  -0.25409
   3        1PY         0.03321   0.15411  -0.09546  -0.28211  -0.23095
   4        1PZ        -0.04274  -0.05943   0.01841   0.09146   0.07922
   5 2   H  1S          0.01168   0.04266  -0.02452  -0.00901   0.03310
   6 3   H  1S         -0.09605  -0.05544  -0.05864  -0.03176  -0.08206
   7 4   H  1S          0.07340  -0.01520   0.09750  -0.04300  -0.09182
   8 5   C  1S         -0.07791  -0.27899   0.20665   0.44135   0.22992
   9        1PX        -0.00228  -0.22285   0.24705  -0.15790  -0.45701
  10        1PY         0.14944   0.19606   0.00656  -0.10607  -0.03601
  11        1PZ         0.58129   0.13333   0.52038   0.01279   0.05007
  12 6   O  1S         -0.00546  -0.02669   0.00758  -0.04135  -0.04127
  13        1PX        -0.00295   0.11661  -0.13528   0.02125   0.15028
  14        1PY        -0.09528  -0.07066   0.00543   0.23678   0.16824
  15        1PZ        -0.37900  -0.09033  -0.30568  -0.03349  -0.04401
  16 7   O  1S          0.07878   0.19789  -0.11421   0.00026   0.13700
  17        1PX         0.01049   0.00833   0.04195   0.22383  -0.00581
  18        1PY         0.05588   0.32637  -0.17334   0.00465   0.15404
  19        1PZ         0.01066  -0.09296  -0.29890   0.01210   0.02625
  20 8   C  1S         -0.11821  -0.28968   0.16118  -0.43961   0.23671
  21        1PX         0.15245   0.22062  -0.13601  -0.15833   0.45884
  22        1PY         0.18536   0.06351  -0.20564   0.09107  -0.01990
  23        1PZ        -0.48689   0.49504   0.38665   0.01908   0.02921
  24 9   O  1S         -0.00823  -0.02398   0.01496   0.04210  -0.04279
  25        1PX        -0.08866  -0.11697   0.07742   0.03345  -0.16098
  26        1PY        -0.11632  -0.00285   0.09310  -0.23008   0.16576
  27        1PZ         0.31631  -0.28688  -0.23333  -0.05728   0.02847
  28 10  C  1S          0.04046   0.11804  -0.07750   0.16088  -0.12259
  29        1PX        -0.06490  -0.17395   0.11236  -0.27831   0.26803
  30        1PY         0.04591   0.15015  -0.09156   0.27608  -0.23208
  31        1PZ         0.03302   0.01108  -0.02622   0.04703  -0.03584
  32 11  H  1S          0.02277   0.03767  -0.03130   0.01384   0.02765
  33 12  H  1S         -0.09125   0.03525   0.08239   0.03354  -0.07762
  34 13  H  1S          0.05535  -0.10073  -0.03765   0.03601  -0.09278
                          26        27        28        29        30
                           V         V         V         V         V
     Eigenvalues --     0.12167   0.15519   0.15977   0.17114   0.17185
   1 1   C  1S          0.05387  -0.01513  -0.00646   0.00479  -0.00212
   2        1PX         0.13725   0.01098  -0.07770   0.08219   0.01829
   3        1PY         0.09103   0.18941   0.24294   0.11518   0.00571
   4        1PZ        -0.04346  -0.03909  -0.02555   0.60511   0.05624
   5 2   H  1S         -0.01972   0.22274   0.32118  -0.00168  -0.00894
   6 3   H  1S          0.07882  -0.00500  -0.09217  -0.54921  -0.04225
   7 4   H  1S          0.05569  -0.00665  -0.07285   0.53852   0.05904
   8 5   C  1S          0.19358   0.18404   0.06096   0.00035   0.00778
   9        1PX         0.46968   0.07004  -0.11491  -0.01094   0.00668
  10        1PY         0.09856   0.44090   0.43408  -0.02485   0.00323
  11        1PZ        -0.14054  -0.09336  -0.05755  -0.10040  -0.01580
  12 6   O  1S         -0.04841  -0.17192  -0.15585   0.00190  -0.00280
  13        1PX        -0.19060  -0.09813  -0.01729   0.00511  -0.00383
  14        1PY         0.12591   0.32901   0.27693   0.00453   0.00686
  15        1PZ         0.02877  -0.05103  -0.05373   0.04023   0.00459
  16 7   O  1S          0.00033   0.01885   0.00154  -0.00038   0.00168
  17        1PX         0.45155   0.01668  -0.22435   0.00581   0.01098
  18        1PY         0.00954  -0.12482  -0.00671   0.00358  -0.00888
  19        1PZ         0.06615   0.00426   0.00991   0.01383   0.01657
  20 8   C  1S         -0.20622   0.17736  -0.05329  -0.00401   0.00635
  21        1PX         0.49644  -0.07717  -0.08918   0.00364   0.01065
  22        1PY        -0.11078   0.44869  -0.40055  -0.00303   0.05691
  23        1PZ        -0.00924   0.09272  -0.11471   0.00579  -0.09352
  24 9   O  1S          0.05659  -0.17598   0.14581   0.00108  -0.01160
  25        1PX        -0.19220   0.06898   0.00524  -0.00213  -0.00081
  26        1PY        -0.14401   0.33099  -0.25690  -0.00183   0.01039
  27        1PZ        -0.04065   0.09156  -0.05784  -0.00307   0.04446
  28 10  C  1S         -0.05568  -0.01529   0.00511   0.00117   0.00233
  29        1PX         0.14785  -0.00502  -0.07685   0.01576  -0.05213
  30        1PY        -0.09347   0.20298  -0.23473   0.02392  -0.14664
  31        1PZ        -0.01672   0.03092  -0.05028  -0.05315   0.60161
  32 11  H  1S          0.01556   0.24548  -0.31655   0.02038  -0.05402
  33 12  H  1S         -0.06841  -0.02480   0.08006  -0.06184   0.57076
  34 13  H  1S         -0.06601  -0.01111   0.09374   0.03820  -0.51086
                          31        32        33        34
                           V         V         V         V
     Eigenvalues --     0.17730   0.18092   0.21095   0.21120
   1 1   C  1S          0.03922  -0.07570   0.42122   0.44720
   2        1PX        -0.30824   0.34253  -0.07700  -0.06300
   3        1PY         0.24502  -0.22414  -0.11735  -0.14043
   4        1PZ        -0.01549  -0.01008   0.03041   0.03252
   5 2   H  1S          0.35422  -0.32059  -0.30958  -0.34945
   6 3   H  1S         -0.21605   0.26305  -0.26562  -0.27319
   7 4   H  1S         -0.23789   0.25928  -0.27046  -0.27858
   8 5   C  1S         -0.07074   0.03000   0.02577   0.00066
   9        1PX         0.06267  -0.16899   0.07721   0.01762
  10        1PY        -0.14494   0.26767   0.11910   0.15485
  11        1PZ         0.02445  -0.01653  -0.03177  -0.03076
  12 6   O  1S          0.05935  -0.09567  -0.03573  -0.04474
  13        1PX         0.00736   0.01502  -0.04381  -0.02628
  14        1PY        -0.11253   0.16381   0.05305   0.06331
  15        1PZ         0.01906  -0.03739  -0.00510  -0.00869
  16 7   O  1S         -0.04235   0.00348  -0.00149   0.00030
  17        1PX        -0.01821  -0.18246   0.00682  -0.06717
  18        1PY         0.00406  -0.00124  -0.06410  -0.00254
  19        1PZ        -0.00868  -0.00195   0.00001   0.01071
  20 8   C  1S         -0.06994  -0.02027   0.02336   0.00072
  21        1PX        -0.07810  -0.13911  -0.08258   0.02504
  22        1PY        -0.19025  -0.24716   0.12828  -0.14208
  23        1PZ        -0.05194  -0.07267   0.02209  -0.03797
  24 9   O  1S          0.07470   0.08793  -0.03916   0.04195
  25        1PX         0.00514   0.02478   0.04035  -0.01995
  26        1PY        -0.13559  -0.14748   0.05749  -0.05944
  27        1PZ        -0.03292  -0.03303   0.01857  -0.01397
  28 10  C  1S          0.05167   0.07449   0.44949  -0.41774
  29        1PX         0.33998   0.28941   0.08207  -0.06147
  30        1PY         0.26363   0.17685  -0.12716   0.13053
  31        1PZ         0.11173   0.06987  -0.02956   0.03386
  32 11  H  1S          0.38640   0.25742  -0.33477   0.32798
  33 12  H  1S         -0.21252  -0.20260  -0.28833   0.26292
  34 13  H  1S         -0.30889  -0.25498  -0.27972   0.25089
     Density Matrix:
                           1         2         3         4         5
   1 1   C  1S          1.09961
   2        1PX        -0.02585   1.13972
   3        1PY        -0.03232  -0.08332   1.14574
   4        1PZ         0.01158   0.02982   0.02731   1.20790
   5 2   H  1S          0.50071   0.38907  -0.73286   0.08459   0.79363
   6 3   H  1S          0.50110  -0.37592   0.20048   0.70987   0.03722
   7 4   H  1S          0.49877  -0.56978  -0.05412  -0.60205   0.03710
   8 5   C  1S          0.27515   0.38564   0.40544  -0.13476   0.00090
   9        1PX        -0.23659  -0.17078  -0.32134   0.11112   0.02718
  10        1PY        -0.27813  -0.35294  -0.27330   0.13947  -0.03454
  11        1PZ         0.08131   0.10602   0.12672   0.14129   0.00079
  12 6   O  1S          0.03321   0.05160   0.02398  -0.01242   0.02273
  13        1PX         0.07645   0.05730   0.08443  -0.03508  -0.01990
  14        1PY         0.07478   0.07961   0.11603  -0.04968  -0.05585
  15        1PZ        -0.01879  -0.02379  -0.04343  -0.07150   0.01577
  16 7   O  1S         -0.02971  -0.05524  -0.01044   0.01338  -0.01121
  17        1PX         0.05183   0.06668   0.05724  -0.01915   0.01342
  18        1PY        -0.01684  -0.07667  -0.03384   0.01625  -0.03275
  19        1PZ        -0.02402  -0.02945  -0.02562  -0.01852  -0.00142
  20 8   C  1S          0.02344   0.04475   0.01717  -0.01424   0.01049
  21        1PX        -0.04573  -0.07720  -0.03670   0.02565  -0.01834
  22        1PY        -0.01262  -0.02760  -0.01145   0.01027  -0.00639
  23        1PZ        -0.01600  -0.02739  -0.01273  -0.00300  -0.00577
  24 9   O  1S          0.00500   0.00877   0.00558  -0.00268   0.00185
  25        1PX         0.02608   0.04052   0.02051  -0.01382   0.00870
  26        1PY         0.00109   0.00111  -0.00378  -0.00342   0.00002
  27        1PZ         0.00899   0.01304   0.00647   0.00499   0.00215
  28 10  C  1S         -0.01159  -0.02149  -0.01033   0.00582  -0.00492
  29        1PX         0.02211   0.03723   0.02057  -0.01123   0.00823
  30        1PY        -0.00987  -0.01895  -0.01099   0.00568  -0.00479
  31        1PZ        -0.00010  -0.00114  -0.00035   0.00170  -0.00033
  32 11  H  1S         -0.00497  -0.00794  -0.00503   0.00262   0.00009
  33 12  H  1S          0.00435   0.00742   0.00417  -0.00387   0.00172
  34 13  H  1S          0.00761   0.01270   0.00724  -0.00234   0.00288
                           6         7         8         9        10
   6 3   H  1S          0.79463
   7 4   H  1S          0.04520   0.79615
   8 5   C  1S         -0.00459  -0.00358   1.08809
   9        1PX        -0.02056  -0.04021  -0.05597   0.75576
  10        1PY         0.02487  -0.00553  -0.05615   0.04802   0.80532
  11        1PZ         0.08107  -0.07055   0.01782  -0.01802  -0.03840
  12 6   O  1S         -0.00094  -0.00035   0.15371  -0.06530   0.38760
  13        1PX         0.01132   0.02951   0.14716   0.46370   0.12432
  14        1PY        -0.01482   0.01254  -0.57518   0.15227  -0.58927
  15        1PZ        -0.07795   0.06681   0.08599   0.01292   0.25983
  16 7   O  1S          0.02557   0.01996   0.09326   0.27436  -0.12165
  17        1PX        -0.02890  -0.02938  -0.35163  -0.48774   0.24295
  18        1PY         0.01833   0.02419   0.23468   0.38986   0.00182
  19        1PZ        -0.02707   0.03990   0.02079   0.07379   0.01205
  20 8   C  1S         -0.01116  -0.00581   0.04360   0.02297  -0.01435
  21        1PX         0.02172   0.01126  -0.01974   0.03417  -0.01936
  22        1PY         0.00899   0.00336  -0.01476   0.01517   0.00431
  23        1PZ        -0.00081   0.01226  -0.00891   0.01067   0.00337
  24 9   O  1S         -0.00230  -0.00173  -0.00581  -0.01383   0.00599
  25        1PX        -0.01594  -0.00654  -0.02100  -0.05311   0.02406
  26        1PY        -0.00456   0.00319   0.02053   0.02110   0.00155
  27        1PZ         0.00505  -0.01025   0.00790  -0.00121  -0.00399
  28 10  C  1S          0.00660   0.00563   0.02531   0.04947  -0.01459
  29        1PX        -0.01222  -0.00911  -0.04982  -0.08635   0.03262
  30        1PY         0.00620   0.00493   0.01723   0.03711  -0.01257
  31        1PZ         0.00203  -0.00099   0.00213   0.00374  -0.00177
  32 11  H  1S          0.00267   0.00201   0.01166   0.02013  -0.00722
  33 12  H  1S         -0.00373  -0.00034  -0.00889  -0.01519   0.00710
  34 13  H  1S         -0.00236  -0.00399  -0.00932  -0.01982   0.00693
                          11        12        13        14        15
  11        1PZ         0.65186
  12 6   O  1S         -0.06367   1.84726
  13        1PX         0.02029  -0.03870   1.79174
  14        1PY         0.24906   0.29439   0.08362   1.30870
  15        1PZ         0.78568  -0.05292  -0.05057   0.02285   1.48375
  16 7   O  1S         -0.03334   0.03710  -0.11348  -0.02591   0.04166
  17        1PX         0.03367  -0.04075   0.17219  -0.03849  -0.01342
  18        1PY        -0.01256  -0.01592  -0.19615   0.09660  -0.00595
  19        1PZ         0.34538   0.01547  -0.04040  -0.05040  -0.19153
  20 8   C  1S          0.00715  -0.00540   0.01618   0.01634  -0.02611
  21        1PX        -0.02498   0.01304  -0.04806  -0.00914   0.04780
  22        1PY        -0.01048   0.00520  -0.02081   0.00639   0.02706
  23        1PZ         0.02714   0.00435  -0.01049  -0.02521  -0.04522
  24 9   O  1S          0.00264  -0.00238   0.00768  -0.00288  -0.00384
  25        1PX         0.02986  -0.00693   0.03680  -0.00452  -0.03237
  26        1PY         0.02185  -0.00166  -0.00526   0.00946  -0.02439
  27        1PZ        -0.04914  -0.00326   0.00274   0.02446   0.04799
  28 10  C  1S         -0.00451   0.00492  -0.02786   0.00394   0.00760
  29        1PX         0.01284  -0.00893   0.04428  -0.00657  -0.01660
  30        1PY        -0.00426   0.00538  -0.02026  -0.00155   0.00846
  31        1PZ        -0.01099   0.00022  -0.00215   0.00298   0.00972
  32 11  H  1S         -0.00238   0.00183  -0.00900   0.00120   0.00409
  33 12  H  1S          0.01038  -0.00138   0.01004  -0.00528  -0.01268
  34 13  H  1S         -0.00389  -0.00254   0.01246   0.00148   0.00355
                          16        17        18        19        20
  16 7   O  1S          1.84130
  17        1PX         0.00562   1.31016
  18        1PY        -0.21486   0.00056   1.63325
  19        1PZ        -0.04137  -0.03426  -0.05208   1.79184
  20 8   C  1S          0.09334   0.33949   0.24049   0.06865   1.08823
  21        1PX        -0.27113  -0.45442  -0.38802  -0.12993   0.06105
  22        1PY        -0.12563  -0.24252  -0.00173  -0.10049  -0.05431
  23        1PZ        -0.04553  -0.11672  -0.12088   0.33683  -0.00889
  24 9   O  1S          0.03767   0.04138  -0.01392  -0.00190   0.15386
  25        1PX         0.11994   0.16013   0.18843   0.05950  -0.11138
  26        1PY        -0.02646   0.03561   0.08814   0.07384  -0.57181
  27        1PZ        -0.00325   0.03507   0.08895  -0.19572  -0.14284
  28 10  C  1S         -0.03125  -0.04992  -0.01955  -0.00530   0.27525
  29        1PX         0.05902   0.06428   0.08178   0.02052  -0.41303
  30        1PY        -0.00984  -0.05340  -0.03676  -0.00034   0.39625
  31        1PZ         0.00003  -0.00672   0.00467  -0.02761   0.06950
  32 11  H  1S         -0.01158  -0.01104  -0.03475  -0.00993   0.00248
  33 12  H  1S          0.02166   0.02280   0.01172   0.04139  -0.00495
  34 13  H  1S          0.02449   0.03252   0.03245  -0.02730  -0.00489
                          21        22        23        24        25
  21        1PX         0.76120
  22        1PY        -0.05693   0.79884
  23        1PZ        -0.00337   0.03572   0.65327
  24 9   O  1S          0.04021   0.38534   0.09545   1.84671
  25        1PX         0.47582  -0.03496  -0.03670   0.01822   1.80207
  26        1PY        -0.06462  -0.56179  -0.34693   0.29237  -0.06358
  27        1PZ        -0.04490  -0.34540   0.74025   0.07378   0.01043
  28 10  C  1S          0.25567  -0.26836  -0.04851   0.03353  -0.07994
  29        1PX        -0.21702   0.36935   0.06229  -0.05384   0.06671
  30        1PY         0.34330  -0.24990  -0.08242   0.02320  -0.09337
  31        1PZ         0.05598  -0.08070   0.16296   0.00220  -0.01247
  32 11  H  1S         -0.02583  -0.03832  -0.00401   0.02323   0.02446
  33 12  H  1S          0.03284   0.02760  -0.07387   0.00004  -0.02499
  34 13  H  1S          0.02707  -0.00516   0.07541  -0.00144  -0.01729
                          26        27        28        29        30
  26        1PY         1.30800
  27        1PZ        -0.04584   1.48206
  28 10  C  1S          0.07050   0.01000   1.09876
  29        1PX        -0.08557  -0.00794   0.03291   1.12599
  30        1PY         0.10760   0.03789  -0.03048   0.08970   1.15157
  31        1PZ         0.04067  -0.07198  -0.00345   0.01395  -0.01405
  32 11  H  1S         -0.05274  -0.01872   0.49611  -0.35756  -0.74166
  33 12  H  1S         -0.02242   0.07245   0.50132   0.47735   0.20529
  34 13  H  1S          0.01692  -0.06759   0.50376   0.46410  -0.04373
                          31        32        33        34
  31        1PZ         1.21339
  32 11  H  1S         -0.14694   0.79375
  33 12  H  1S         -0.64423   0.04222   0.79344
  34 13  H  1S          0.68434   0.03508   0.04204   0.79629
    Full Mulliken population analysis:
                           1         2         3         4         5
   1 1   C  1S          1.09961
   2        1PX         0.00000   1.13972
   3        1PY         0.00000   0.00000   1.14574
   4        1PZ         0.00000   0.00000   0.00000   1.20790
   5 2   H  1S          0.00000   0.00000   0.00000   0.00000   0.79363
   6 3   H  1S          0.00000   0.00000   0.00000   0.00000   0.00000
   7 4   H  1S          0.00000   0.00000   0.00000   0.00000   0.00000
   8 5   C  1S          0.00000   0.00000   0.00000   0.00000   0.00000
   9        1PX         0.00000   0.00000   0.00000   0.00000   0.00000
  10        1PY         0.00000   0.00000   0.00000   0.00000   0.00000
  11        1PZ         0.00000   0.00000   0.00000   0.00000   0.00000
  12 6   O  1S          0.00000   0.00000   0.00000   0.00000   0.00000
  13        1PX         0.00000   0.00000   0.00000   0.00000   0.00000
  14        1PY         0.00000   0.00000   0.00000   0.00000   0.00000
  15        1PZ         0.00000   0.00000   0.00000   0.00000   0.00000
  16 7   O  1S          0.00000   0.00000   0.00000   0.00000   0.00000
  17        1PX         0.00000   0.00000   0.00000   0.00000   0.00000
  18        1PY         0.00000   0.00000   0.00000   0.00000   0.00000
  19        1PZ         0.00000   0.00000   0.00000   0.00000   0.00000
  20 8   C  1S          0.00000   0.00000   0.00000   0.00000   0.00000
  21        1PX         0.00000   0.00000   0.00000   0.00000   0.00000
  22        1PY         0.00000   0.00000   0.00000   0.00000   0.00000
  23        1PZ         0.00000   0.00000   0.00000   0.00000   0.00000
  24 9   O  1S          0.00000   0.00000   0.00000   0.00000   0.00000
  25        1PX         0.00000   0.00000   0.00000   0.00000   0.00000
  26        1PY         0.00000   0.00000   0.00000   0.00000   0.00000
  27        1PZ         0.00000   0.00000   0.00000   0.00000   0.00000
  28 10  C  1S          0.00000   0.00000   0.00000   0.00000   0.00000
  29        1PX         0.00000   0.00000   0.00000   0.00000   0.00000
  30        1PY         0.00000   0.00000   0.00000   0.00000   0.00000
  31        1PZ         0.00000   0.00000   0.00000   0.00000   0.00000
  32 11  H  1S          0.00000   0.00000   0.00000   0.00000   0.00000
  33 12  H  1S          0.00000   0.00000   0.00000   0.00000   0.00000
  34 13  H  1S          0.00000   0.00000   0.00000   0.00000   0.00000
                           6         7         8         9        10
   6 3   H  1S          0.79463
   7 4   H  1S          0.00000   0.79615
   8 5   C  1S          0.00000   0.00000   1.08809
   9        1PX         0.00000   0.00000   0.00000   0.75576
  10        1PY         0.00000   0.00000   0.00000   0.00000   0.80532
  11        1PZ         0.00000   0.00000   0.00000   0.00000   0.00000
  12 6   O  1S          0.00000   0.00000   0.00000   0.00000   0.00000
  13        1PX         0.00000   0.00000   0.00000   0.00000   0.00000
  14        1PY         0.00000   0.00000   0.00000   0.00000   0.00000
  15        1PZ         0.00000   0.00000   0.00000   0.00000   0.00000
  16 7   O  1S          0.00000   0.00000   0.00000   0.00000   0.00000
  17        1PX         0.00000   0.00000   0.00000   0.00000   0.00000
  18        1PY         0.00000   0.00000   0.00000   0.00000   0.00000
  19        1PZ         0.00000   0.00000   0.00000   0.00000   0.00000
  20 8   C  1S          0.00000   0.00000   0.00000   0.00000   0.00000
  21        1PX         0.00000   0.00000   0.00000   0.00000   0.00000
  22        1PY         0.00000   0.00000   0.00000   0.00000   0.00000
  23        1PZ         0.00000   0.00000   0.00000   0.00000   0.00000
  24 9   O  1S          0.00000   0.00000   0.00000   0.00000   0.00000
  25        1PX         0.00000   0.00000   0.00000   0.00000   0.00000
  26        1PY         0.00000   0.00000   0.00000   0.00000   0.00000
  27        1PZ         0.00000   0.00000   0.00000   0.00000   0.00000
  28 10  C  1S          0.00000   0.00000   0.00000   0.00000   0.00000
  29        1PX         0.00000   0.00000   0.00000   0.00000   0.00000
  30        1PY         0.00000   0.00000   0.00000   0.00000   0.00000
  31        1PZ         0.00000   0.00000   0.00000   0.00000   0.00000
  32 11  H  1S          0.00000   0.00000   0.00000   0.00000   0.00000
  33 12  H  1S          0.00000   0.00000   0.00000   0.00000   0.00000
  34 13  H  1S          0.00000   0.00000   0.00000   0.00000   0.00000
                          11        12        13        14        15
  11        1PZ         0.65186
  12 6   O  1S          0.00000   1.84726
  13        1PX         0.00000   0.00000   1.79174
  14        1PY         0.00000   0.00000   0.00000   1.30870
  15        1PZ         0.00000   0.00000   0.00000   0.00000   1.48375
  16 7   O  1S          0.00000   0.00000   0.00000   0.00000   0.00000
  17        1PX         0.00000   0.00000   0.00000   0.00000   0.00000
  18        1PY         0.00000   0.00000   0.00000   0.00000   0.00000
  19        1PZ         0.00000   0.00000   0.00000   0.00000   0.00000
  20 8   C  1S          0.00000   0.00000   0.00000   0.00000   0.00000
  21        1PX         0.00000   0.00000   0.00000   0.00000   0.00000
  22        1PY         0.00000   0.00000   0.00000   0.00000   0.00000
  23        1PZ         0.00000   0.00000   0.00000   0.00000   0.00000
  24 9   O  1S          0.00000   0.00000   0.00000   0.00000   0.00000
  25        1PX         0.00000   0.00000   0.00000   0.00000   0.00000
  26        1PY         0.00000   0.00000   0.00000   0.00000   0.00000
  27        1PZ         0.00000   0.00000   0.00000   0.00000   0.00000
  28 10  C  1S          0.00000   0.00000   0.00000   0.00000   0.00000
  29        1PX         0.00000   0.00000   0.00000   0.00000   0.00000
  30        1PY         0.00000   0.00000   0.00000   0.00000   0.00000
  31        1PZ         0.00000   0.00000   0.00000   0.00000   0.00000
  32 11  H  1S          0.00000   0.00000   0.00000   0.00000   0.00000
  33 12  H  1S          0.00000   0.00000   0.00000   0.00000   0.00000
  34 13  H  1S          0.00000   0.00000   0.00000   0.00000   0.00000
                          16        17        18        19        20
  16 7   O  1S          1.84130
  17        1PX         0.00000   1.31016
  18        1PY         0.00000   0.00000   1.63325
  19        1PZ         0.00000   0.00000   0.00000   1.79184
  20 8   C  1S          0.00000   0.00000   0.00000   0.00000   1.08823
  21        1PX         0.00000   0.00000   0.00000   0.00000   0.00000
  22        1PY         0.00000   0.00000   0.00000   0.00000   0.00000
  23        1PZ         0.00000   0.00000   0.00000   0.00000   0.00000
  24 9   O  1S          0.00000   0.00000   0.00000   0.00000   0.00000
  25        1PX         0.00000   0.00000   0.00000   0.00000   0.00000
  26        1PY         0.00000   0.00000   0.00000   0.00000   0.00000
  27        1PZ         0.00000   0.00000   0.00000   0.00000   0.00000
  28 10  C  1S          0.00000   0.00000   0.00000   0.00000   0.00000
  29        1PX         0.00000   0.00000   0.00000   0.00000   0.00000
  30        1PY         0.00000   0.00000   0.00000   0.00000   0.00000
  31        1PZ         0.00000   0.00000   0.00000   0.00000   0.00000
  32 11  H  1S          0.00000   0.00000   0.00000   0.00000   0.00000
  33 12  H  1S          0.00000   0.00000   0.00000   0.00000   0.00000
  34 13  H  1S          0.00000   0.00000   0.00000   0.00000   0.00000
                          21        22        23        24        25
  21        1PX         0.76120
  22        1PY         0.00000   0.79884
  23        1PZ         0.00000   0.00000   0.65327
  24 9   O  1S          0.00000   0.00000   0.00000   1.84671
  25        1PX         0.00000   0.00000   0.00000   0.00000   1.80207
  26        1PY         0.00000   0.00000   0.00000   0.00000   0.00000
  27        1PZ         0.00000   0.00000   0.00000   0.00000   0.00000
  28 10  C  1S          0.00000   0.00000   0.00000   0.00000   0.00000
  29        1PX         0.00000   0.00000   0.00000   0.00000   0.00000
  30        1PY         0.00000   0.00000   0.00000   0.00000   0.00000
  31        1PZ         0.00000   0.00000   0.00000   0.00000   0.00000
  32 11  H  1S          0.00000   0.00000   0.00000   0.00000   0.00000
  33 12  H  1S          0.00000   0.00000   0.00000   0.00000   0.00000
  34 13  H  1S          0.00000   0.00000   0.00000   0.00000   0.00000
                          26        27        28        29        30
  26        1PY         1.30800
  27        1PZ         0.00000   1.48206
  28 10  C  1S          0.00000   0.00000   1.09876
  29        1PX         0.00000   0.00000   0.00000   1.12599
  30        1PY         0.00000   0.00000   0.00000   0.00000   1.15157
  31        1PZ         0.00000   0.00000   0.00000   0.00000   0.00000
  32 11  H  1S          0.00000   0.00000   0.00000   0.00000   0.00000
  33 12  H  1S          0.00000   0.00000   0.00000   0.00000   0.00000
  34 13  H  1S          0.00000   0.00000   0.00000   0.00000   0.00000
                          31        32        33        34
  31        1PZ         1.21339
  32 11  H  1S          0.00000   0.79375
  33 12  H  1S          0.00000   0.00000   0.79344
  34 13  H  1S          0.00000   0.00000   0.00000   0.79629
     Gross orbital populations:
                           1
   1 1   C  1S          1.09961
   2        1PX         1.13972
   3        1PY         1.14574
   4        1PZ         1.20790
   5 2   H  1S          0.79363
   6 3   H  1S          0.79463
   7 4   H  1S          0.79615
   8 5   C  1S          1.08809
   9        1PX         0.75576
  10        1PY         0.80532
  11        1PZ         0.65186
  12 6   O  1S          1.84726
  13        1PX         1.79174
  14        1PY         1.30870
  15        1PZ         1.48375
  16 7   O  1S          1.84130
  17        1PX         1.31016
  18        1PY         1.63325
  19        1PZ         1.79184
  20 8   C  1S          1.08823
  21        1PX         0.76120
  22        1PY         0.79884
  23        1PZ         0.65327
  24 9   O  1S          1.84671
  25        1PX         1.80207
  26        1PY         1.30800
  27        1PZ         1.48206
  28 10  C  1S          1.09876
  29        1PX         1.12599
  30        1PY         1.15157
  31        1PZ         1.21339
  32 11  H  1S          0.79375
  33 12  H  1S          0.79344
  34 13  H  1S          0.79629
          Condensed to atoms (all electrons):
               1          2          3          4          5          6
     1  C    4.592968   0.000000   0.000000   0.000000   0.000000   0.000000
     2  H    0.000000   0.793633   0.000000   0.000000   0.000000   0.000000
     3  H    0.000000   0.000000   0.794628   0.000000   0.000000   0.000000
     4  H    0.000000   0.000000   0.000000   0.796153   0.000000   0.000000
     5  C    0.000000   0.000000   0.000000   0.000000   3.301033   0.000000
     6  O    0.000000   0.000000   0.000000   0.000000   0.000000   6.431453
     7  O    0.000000   0.000000   0.000000   0.000000   0.000000   0.000000
     8  C    0.000000   0.000000   0.000000   0.000000   0.000000   0.000000
     9  O    0.000000   0.000000   0.000000   0.000000   0.000000   0.000000
    10  C    0.000000   0.000000   0.000000   0.000000   0.000000   0.000000
    11  H    0.000000   0.000000   0.000000   0.000000   0.000000   0.000000
    12  H    0.000000   0.000000   0.000000   0.000000   0.000000   0.000000
    13  H    0.000000   0.000000   0.000000   0.000000   0.000000   0.000000
               7          8          9         10         11         12
     1  C    0.000000   0.000000   0.000000   0.000000   0.000000   0.000000
     2  H    0.000000   0.000000   0.000000   0.000000   0.000000   0.000000
     3  H    0.000000   0.000000   0.000000   0.000000   0.000000   0.000000
     4  H    0.000000   0.000000   0.000000   0.000000   0.000000   0.000000
     5  C    0.000000   0.000000   0.000000   0.000000   0.000000   0.000000
     6  O    0.000000   0.000000   0.000000   0.000000   0.000000   0.000000
     7  O    6.576559   0.000000   0.000000   0.000000   0.000000   0.000000
     8  C    0.000000   3.301542   0.000000   0.000000   0.000000   0.000000
     9  O    0.000000   0.000000   6.438846   0.000000   0.000000   0.000000
    10  C    0.000000   0.000000   0.000000   4.589704   0.000000   0.000000
    11  H    0.000000   0.000000   0.000000   0.000000   0.793749   0.000000
    12  H    0.000000   0.000000   0.000000   0.000000   0.000000   0.793441
    13  H    0.000000   0.000000   0.000000   0.000000   0.000000   0.000000
              13
     1  C    0.000000
     2  H    0.000000
     3  H    0.000000
     4  H    0.000000
     5  C    0.000000
     6  O    0.000000
     7  O    0.000000
     8  C    0.000000
     9  O    0.000000
    10  C    0.000000
    11  H    0.000000
    12  H    0.000000
    13  H    0.796292
 Mulliken charges:
               1
     1  C   -0.592968
     2  H    0.206367
     3  H    0.205372
     4  H    0.203847
     5  C    0.698967
     6  O   -0.431453
     7  O   -0.576559
     8  C    0.698458
     9  O   -0.438846
    10  C   -0.589704
    11  H    0.206251
    12  H    0.206559
    13  H    0.203708
 Sum of Mulliken charges =   0.00000
 Mulliken charges with hydrogens summed into heavy atoms:
               1
     1  C    0.022618
     5  C    0.698967
     6  O   -0.431453
     7  O   -0.576559
     8  C    0.698458
     9  O   -0.438846
    10  C    0.026814
 Charge=              0.0000 electrons
 Dipole moment (field-independent basis, Debye):
    X=              0.1305    Y=             -4.8551    Z=              0.2933  Tot=              4.8657
 N-N= 1.950297077094D+02 E-N=-3.400351029011D+02  KE=-2.228257121051D+01
 Orbital energies and kinetic energies (alpha):
                                 1                 2
   1         O                -1.205236         -0.944555
   2         O                -1.195498         -0.937592
   3         O                -1.120373         -0.886444
   4         O                -1.039654         -0.940001
   5         O                -0.988955         -0.946242
   6         O                -0.840351         -0.721083
   7         O                -0.732034         -0.601746
   8         O                -0.656836         -0.498130
   9         O                -0.635782         -0.482703
  10         O                -0.630240         -0.475748
  11         O                -0.587899         -0.484450
  12         O                -0.565170         -0.408169
  13         O                -0.552493         -0.507506
  14         O                -0.523124         -0.456035
  15         O                -0.518741         -0.457730
  16         O                -0.508901         -0.386389
  17         O                -0.500361         -0.331346
  18         O                -0.452892         -0.230388
  19         O                -0.430854         -0.224000
  20         O                -0.404992         -0.221031
  21         V                 0.001756         -0.196768
  22         V                 0.023840         -0.180332
  23         V                 0.034525         -0.163491
  24         V                 0.093275         -0.161313
  25         V                 0.111047         -0.131304
  26         V                 0.121670         -0.073227
  27         V                 0.155190         -0.057153
  28         V                 0.159768         -0.090435
  29         V                 0.171140         -0.232425
  30         V                 0.171853         -0.231060
  31         V                 0.177304         -0.203669
  32         V                 0.180916         -0.160027
  33         V                 0.210946         -0.231071
  34         V                 0.211205         -0.229895
 Total kinetic energy from orbitals=-2.228257121051D+01
 Calling FoFJK, ICntrl=      2127 FMM=F ISym2X=0 I1Cent= 0 IOpClX= 0 NMat=1 NMatS=1 NMatT=0.
 ***** Axes restored to original set *****
 -------------------------------------------------------------------
 Center     Atomic                   Forces (Hartrees/Bohr)
 Number     Number              X              Y              Z
 -------------------------------------------------------------------
      1        6          -0.001849104   -0.001028924   -0.001839416
      2        1          -0.000143431    0.000058251   -0.000095741
      3        1           0.000147123    0.000203476   -0.000164324
      4        1          -0.000233348   -0.000200726    0.000368093
      5        6          -0.000308018    0.002539039    0.003861337
      6        8           0.000304050   -0.001352870   -0.001668327
      7        8           0.004345193    0.001680098    0.002017027
      8        6          -0.001058632   -0.002115036   -0.006227949
      9        8          -0.000406431    0.001248570    0.002198712
     10        6          -0.002022756   -0.001392655    0.001431895
     11        1           0.000736237   -0.001597452    0.000818494
     12        1           0.000285301    0.001889455    0.000122992
     13        1           0.000203817    0.000068774   -0.000822792
 -------------------------------------------------------------------
 Cartesian Forces:  Max     0.006227949 RMS     0.001806817

 GradGradGradGradGradGradGradGradGradGradGradGradGradGradGradGradGradGrad
 Berny optimization.
 FormGI is forming the generalized inverse of G from B-inverse, IUseBI=4.
 Internal  Forces:  Max     0.002584416 RMS     0.001188531
 Search for a local minimum.
 Step number   1 out of a maximum of   57
 All quantities printed in internal units (Hartrees-Bohrs-Radians)
 Mixed Optimization -- RFO/linear search
 Second derivative matrix not updated -- first step.
 ITU=  0
     Eigenvalues ---    0.00918   0.00918   0.01063   0.01065   0.01588
     Eigenvalues ---    0.01598   0.07113   0.07254   0.07268   0.07397
     Eigenvalues ---    0.16000   0.16000   0.16000   0.16000   0.16000
     Eigenvalues ---    0.16000   0.25000   0.25000   0.25000   0.25000
     Eigenvalues ---    0.25000   0.33436   0.33449   0.33449   0.33468
     Eigenvalues ---    0.33469   0.33528   0.33613   0.33616   0.44343
     Eigenvalues ---    0.44461   1.07486   1.07598
 RFO step:  Lambda=-1.66810649D-03 EMin= 9.17921281D-03
 Linear search not attempted -- first point.
 Iteration  1 RMS(Cart)=  0.05968018 RMS(Int)=  0.00302437
 Iteration  2 RMS(Cart)=  0.00585811 RMS(Int)=  0.00118978
 Iteration  3 RMS(Cart)=  0.00001123 RMS(Int)=  0.00118975
 Iteration  4 RMS(Cart)=  0.00000001 RMS(Int)=  0.00118975
 Variable       Old X    -DE/DX   Delta X   Delta X   Delta X     New X
                                 (Linear)    (Quad)   (Total)
    R1        2.08293  -0.00015   0.00000  -0.00043  -0.00043   2.08250
    R2        2.08270  -0.00006   0.00000  -0.00017  -0.00017   2.08253
    R3        2.08269   0.00012   0.00000   0.00035   0.00035   2.08304
    R4        2.81288   0.00047   0.00000   0.00139   0.00139   2.81427
    R5        2.25782  -0.00049   0.00000  -0.00046  -0.00046   2.25736
    R6        2.65907   0.00198   0.00000   0.00443   0.00443   2.66350
    R7        2.66047  -0.00207   0.00000  -0.00466  -0.00466   2.65580
    R8        2.25742   0.00085   0.00000   0.00079   0.00079   2.25820
    R9        2.81282   0.00012   0.00000   0.00037   0.00037   2.81319
   R10        2.08237   0.00133   0.00000   0.00395   0.00395   2.08632
   R11        2.08236  -0.00024   0.00000  -0.00073  -0.00073   2.08163
   R12        2.08134  -0.00030   0.00000  -0.00090  -0.00090   2.08044
    A1        1.87984   0.00017   0.00000   0.00024   0.00024   1.88008
    A2        1.87989  -0.00027   0.00000  -0.00079  -0.00079   1.87910
    A3        1.96757   0.00002   0.00000   0.00020   0.00019   1.96776
    A4        1.87076  -0.00011   0.00000  -0.00078  -0.00077   1.86999
    A5        1.93104  -0.00058   0.00000  -0.00406  -0.00406   1.92698
    A6        1.93105   0.00075   0.00000   0.00510   0.00510   1.93614
    A7        2.27456  -0.00007   0.00000  -0.00029  -0.00478   2.26978
    A8        1.86215   0.00258   0.00000   0.01027   0.00582   1.86797
    A9        2.14647  -0.00251   0.00000  -0.00998  -0.01443   2.13204
   A10        2.20893  -0.00064   0.00000  -0.00254  -0.00254   2.20639
   A11        2.14636  -0.00166   0.00000  -0.00660  -0.00798   2.13838
   A12        1.86104   0.00091   0.00000   0.00360   0.00220   1.86324
   A13        2.27579   0.00075   0.00000   0.00299   0.00158   2.27736
   A14        1.94674   0.00253   0.00000   0.02021   0.02021   1.96695
   A15        1.94697  -0.00230   0.00000  -0.01611  -0.01617   1.93080
   A16        1.93516   0.00002   0.00000  -0.00255  -0.00267   1.93249
   A17        1.85718   0.00075   0.00000   0.00966   0.00971   1.86689
   A18        1.88722  -0.00074   0.00000  -0.00098  -0.00104   1.88618
   A19        1.88734  -0.00028   0.00000  -0.01023  -0.01039   1.87695
    D1        3.14085  -0.00101   0.00000  -0.09116  -0.09109   3.04976
    D2       -0.00075   0.00116   0.00000   0.08486   0.08480   0.08404
    D3       -1.03611  -0.00119   0.00000  -0.09360  -0.09353  -1.12964
    D4        2.10547   0.00098   0.00000   0.08242   0.08236   2.18783
    D5        1.03455  -0.00121   0.00000  -0.09390  -0.09384   0.94071
    D6       -2.10705   0.00096   0.00000   0.08211   0.08205  -2.02500
    D7       -2.66707  -0.00228   0.00000  -0.15360  -0.15305  -2.82013
    D8        0.47451  -0.00031   0.00000   0.00638   0.00584   0.48035
    D9       -0.00017   0.00208   0.00000   0.13183   0.13156   0.13140
   D10        3.14138   0.00098   0.00000   0.04245   0.04271  -3.09909
   D11       -0.06365   0.00049   0.00000   0.04709   0.04717  -0.01648
   D12        2.01058   0.00160   0.00000   0.06206   0.06201   2.07259
   D13       -2.16797  -0.00030   0.00000   0.03642   0.03651  -2.13146
   D14        3.07789  -0.00072   0.00000  -0.05136  -0.05136   3.02653
   D15       -1.13107   0.00039   0.00000  -0.03639  -0.03652  -1.16759
   D16        0.97357  -0.00151   0.00000  -0.06203  -0.06202   0.91154
         Item               Value     Threshold  Converged?
 Maximum Force            0.002584     0.000450     NO 
 RMS     Force            0.001189     0.000300     NO 
 Maximum Displacement     0.204922     0.001800     NO 
 RMS     Displacement     0.058207     0.001200     NO 
 Predicted change in Energy=-9.139736D-04
 GradGradGradGradGradGradGradGradGradGradGradGradGradGradGradGradGradGrad

                          Input orientation:                          
 ---------------------------------------------------------------------
 Center     Atomic      Atomic             Coordinates (Angstroms)
 Number     Number       Type             X           Y           Z
 ---------------------------------------------------------------------
      1          6           0       -1.885951   -0.536636    1.840805
      2          1           0       -1.343041   -1.427727    2.195252
      3          1           0       -2.198141    0.040230    2.726368
      4          1           0       -2.803982   -0.882299    1.338014
      5          6           0       -1.067866    0.311702    0.930353
      6          8           0       -1.370046    1.287010    0.310353
      7          8           0        0.147329   -0.368580    0.713301
      8          6           0        1.342850    0.191950    0.231991
      9          8           0        1.483170    1.368181    0.074530
     10          6           0        2.322980   -0.922471    0.115509
     11          1           0        1.905649   -1.892318    0.438184
     12          1           0        2.649250   -1.044663   -0.929496
     13          1           0        3.219267   -0.717899    0.721190
 ---------------------------------------------------------------------
                    Distance matrix (angstroms):
                    1          2          3          4          5
     1  C    0.000000
     2  H    1.102010   0.000000
     3  H    1.102025   1.779937   0.000000
     4  H    1.102299   1.779522   1.773593   0.000000
     5  C    1.489249   2.168249   2.139366   2.146141   0.000000
     6  O    2.436006   3.305052   2.842064   2.796097   1.194546
     7  O    2.331037   2.353545   3.117819   3.060132   1.409466
     8  C    3.680255   3.700238   4.334000   4.424196   2.512688
     9  O    4.254295   4.505777   4.727340   5.004070   2.890738
    10  C    4.565152   4.245036   5.308853   5.270851   3.699323
    11  H    4.263971   3.722515   5.080513   4.900046   3.733862
    12  H    5.338605   5.084208   6.167620   5.908105   4.372152
    13  H    5.229689   4.846790   5.826131   6.056982   4.413993
                    6          7          8          9         10
     6  O    0.000000
     7  O    2.281616   0.000000
     8  C    2.926619   1.405391   0.000000
     9  O    2.864095   2.282287   1.194990   0.000000
    10  C    4.307925   2.323276   1.488677   2.440092   0.000000
    11  H    4.566688   2.342894   2.168740   3.307806   1.104032
    12  H    4.809227   3.068465   2.141248   2.861752   1.101552
    13  H    5.024961   3.091745   2.141981   2.789970   1.100922
                   11         12         13
    11  H    0.000000
    12  H    1.772571   0.000000
    13  H    1.784642   1.776642   0.000000
 Stoichiometry    C4H6O3
 Framework group  C1[X(C4H6O3)]
 Deg. of freedom    33
 Full point group                 C1      NOp   1
 Largest Abelian subgroup         C1      NOp   1
 Largest concise Abelian subgroup C1      NOp   1
                         Standard orientation:                         
 ---------------------------------------------------------------------
 Center     Atomic      Atomic             Coordinates (Angstroms)
 Number     Number       Type             X           Y           Z
 ---------------------------------------------------------------------
      1          6           0       -2.257566   -0.938879    0.213890
      2          1           0       -1.794083   -1.924575    0.381259
      3          1           0       -2.861394   -0.696757    1.103400
      4          1           0       -2.954080   -1.036551   -0.634869
      5          6           0       -1.255361    0.132824   -0.040865
      6          8           0       -1.414231    1.278539   -0.339256
      7          8           0        0.008314   -0.488869   -0.097580
      8          6           0        1.255935    0.142828    0.042150
      9          8           0        1.363271    1.289872    0.359592
     10          6           0        2.292902   -0.907738   -0.150650
     11          1           0        1.858864   -1.906028   -0.334810
     12          1           0        2.930223   -0.669558   -1.016970
     13          1           0        2.946176   -0.977080    0.732783
 ---------------------------------------------------------------------
 Rotational constants (GHZ):      5.2787334      1.8486374      1.4340706
 Standard basis: VSTO-6G (5D, 7F)
 There are    34 symmetry adapted cartesian basis functions of A   symmetry.
 There are    34 symmetry adapted basis functions of A   symmetry.
    34 basis functions,   204 primitive gaussians,    34 cartesian basis functions
    20 alpha electrons       20 beta electrons
       nuclear repulsion energy       194.9832699119 Hartrees.
 Integral buffers will be    262144 words long.
 Regular integral format.
 Two-electron integral symmetry is turned off.
 Do NDO integrals.
 One-electron integrals computed using PRISM.
 NBasis=    34 RedAO= F EigKep=  0.00D+00  NBF=    34
 NBsUse=    34 1.00D-04 EigRej=  0.00D+00 NBFU=    34
 Initial guess from the checkpoint file:  "C:\G09W\gxx.chk"
 B after Tr=     0.000000    0.000000    0.000000
         Rot=    0.999992    0.001204    0.001314    0.003511 Ang=   0.45 deg.
 Overlap will be assumed to be unity.
 Keep J ints in memory in canonical form, NReq=889142.
 Requested convergence on RMS density matrix=1.00D-08 within 128 cycles.
 Requested convergence on MAX density matrix=1.00D-06.
 Requested convergence on             energy=1.00D-06.
 No special actions if energy rises.
 SCF Done:  E(RPM6) = -0.219520044628     A.U. after   12 cycles
            NFock= 11  Conv=0.50D-08     -V/T= 0.9901
 Calling FoFJK, ICntrl=      2127 FMM=F ISym2X=0 I1Cent= 0 IOpClX= 0 NMat=1 NMatS=1 NMatT=0.
 ***** Axes restored to original set *****
 -------------------------------------------------------------------
 Center     Atomic                   Forces (Hartrees/Bohr)
 Number     Number              X              Y              Z
 -------------------------------------------------------------------
      1        6           0.002006473    0.002683729    0.003327996
      2        1          -0.000015714   -0.000031496   -0.000154194
      3        1          -0.000398940   -0.000338589    0.000405712
      4        1           0.000445948    0.000415548   -0.000502953
      5        6          -0.005816823   -0.008437988   -0.010045864
      6        8           0.001721760    0.003815623    0.002911390
      7        8           0.001886156    0.002148973    0.003511102
      8        6           0.001166680   -0.001587934    0.005020263
      9        8          -0.000274025    0.001202533   -0.001678521
     10        6          -0.001802899   -0.000975838   -0.002756780
     11        1           0.000262412    0.000796129    0.000277776
     12        1           0.000663570    0.000179471   -0.000390848
     13        1           0.000155401    0.000129838    0.000074920
 -------------------------------------------------------------------
 Cartesian Forces:  Max     0.010045864 RMS     0.002875752

 GradGradGradGradGradGradGradGradGradGradGradGradGradGradGradGradGradGrad
 Berny optimization.
 Using GEDIIS/GDIIS optimizer.
 FormGI is forming the generalized inverse of G from B-inverse, IUseBI=4.
 Internal  Forces:  Max     0.002891978 RMS     0.001211001
 Search for a local minimum.
 Step number   2 out of a maximum of   57
 All quantities printed in internal units (Hartrees-Bohrs-Radians)
 Mixed Optimization -- RFO/linear search
 Update second derivatives using D2CorX and points    1    2
 DE= -4.81D-06 DEPred=-9.14D-04 R= 5.26D-03
 Trust test= 5.26D-03 RLast= 3.25D-01 DXMaxT set to 1.50D-01
 ITU= -1  0
 Use linear search instead of GDIIS.
     Eigenvalues ---    0.00915   0.00918   0.01073   0.01112   0.01578
     Eigenvalues ---    0.03857   0.07080   0.07117   0.07229   0.07395
     Eigenvalues ---    0.15704   0.16000   0.16000   0.16000   0.16000
     Eigenvalues ---    0.16229   0.24160   0.24800   0.24933   0.25000
     Eigenvalues ---    0.25054   0.33433   0.33445   0.33449   0.33460
     Eigenvalues ---    0.33504   0.33530   0.33616   0.33680   0.44077
     Eigenvalues ---    0.44413   1.07503   1.07615
 RFO step:  Lambda=-7.52095472D-04 EMin= 9.15058648D-03
 Quartic linear search produced a step of -0.49856.
 Iteration  1 RMS(Cart)=  0.04896839 RMS(Int)=  0.00126921
 Iteration  2 RMS(Cart)=  0.00204227 RMS(Int)=  0.00015969
 Iteration  3 RMS(Cart)=  0.00000155 RMS(Int)=  0.00015968
 Iteration  4 RMS(Cart)=  0.00000000 RMS(Int)=  0.00015968
 Variable       Old X    -DE/DX   Delta X   Delta X   Delta X     New X
                                 (Linear)    (Quad)   (Total)
    R1        2.08250  -0.00003   0.00022  -0.00046  -0.00025   2.08225
    R2        2.08253   0.00026   0.00009   0.00022   0.00031   2.08283
    R3        2.08304  -0.00027  -0.00017  -0.00007  -0.00024   2.08280
    R4        2.81427  -0.00079  -0.00069   0.00017  -0.00052   2.81375
    R5        2.25736   0.00117   0.00023   0.00010   0.00033   2.25769
    R6        2.66350   0.00024  -0.00221   0.00454   0.00233   2.66584
    R7        2.65580  -0.00014   0.00232  -0.00466  -0.00234   2.65347
    R8        2.25820   0.00137  -0.00039   0.00140   0.00100   2.25921
    R9        2.81319  -0.00035  -0.00018  -0.00017  -0.00035   2.81284
   R10        2.08632  -0.00072  -0.00197   0.00275   0.00078   2.08710
   R11        2.08163   0.00055   0.00036   0.00011   0.00047   2.08211
   R12        2.08044   0.00019   0.00045  -0.00058  -0.00013   2.08031
    A1        1.88008  -0.00022  -0.00012   0.00072   0.00060   1.88068
    A2        1.87910   0.00036   0.00040  -0.00083  -0.00043   1.87867
    A3        1.96776  -0.00005  -0.00010   0.00003  -0.00007   1.96769
    A4        1.86999   0.00006   0.00038  -0.00054  -0.00016   1.86983
    A5        1.92698   0.00117   0.00202   0.00037   0.00239   1.92937
    A6        1.93614  -0.00131  -0.00254   0.00021  -0.00233   1.93381
    A7        2.26978   0.00080   0.00238   0.00191   0.00473   2.27450
    A8        1.86797   0.00038  -0.00290   0.01143   0.00895   1.87692
    A9        2.13204  -0.00047   0.00719  -0.00970  -0.00210   2.12995
   A10        2.20639  -0.00063   0.00126  -0.00369  -0.00243   2.20396
   A11        2.13838  -0.00050   0.00398  -0.00733  -0.00307   2.13531
   A12        1.86324   0.00091  -0.00110   0.00528   0.00446   1.86770
   A13        2.27736  -0.00021  -0.00079   0.00241   0.00192   2.27928
   A14        1.96695  -0.00019  -0.01008   0.01909   0.00902   1.97596
   A15        1.93080   0.00038   0.00806  -0.01395  -0.00589   1.92491
   A16        1.93249  -0.00029   0.00133  -0.00415  -0.00279   1.92970
   A17        1.86689   0.00037  -0.00484   0.01175   0.00688   1.87377
   A18        1.88618  -0.00001   0.00052  -0.00194  -0.00140   1.88479
   A19        1.87695  -0.00025   0.00518  -0.01144  -0.00621   1.87073
    D1        3.04976   0.00191   0.04541   0.00500   0.05052   3.10027
    D2        0.08404  -0.00263  -0.04228  -0.01789  -0.06027   0.02377
    D3       -1.12964   0.00242   0.04663   0.00620   0.05293  -1.07671
    D4        2.18783  -0.00212  -0.04106  -0.01669  -0.05786   2.12997
    D5        0.94071   0.00242   0.04679   0.00590   0.05279   0.99350
    D6       -2.02500  -0.00212  -0.04091  -0.01700  -0.05800  -2.08301
    D7       -2.82013   0.00222   0.07631  -0.05772   0.01821  -2.80192
    D8        0.48035  -0.00203  -0.00291  -0.07960  -0.08214   0.39821
    D9        0.13140   0.00081  -0.06559   0.13804   0.07263   0.20403
   D10       -3.09909   0.00289  -0.02129   0.14210   0.12062  -2.97847
   D11       -0.01648  -0.00147  -0.02352  -0.00590  -0.02949  -0.04597
   D12        2.07259  -0.00086  -0.03092   0.01219  -0.01875   2.05384
   D13       -2.13146  -0.00112  -0.01820  -0.01370  -0.03196  -2.16343
   D14        3.02653   0.00083   0.02561  -0.00206   0.02358   3.05011
   D15       -1.16759   0.00144   0.01821   0.01603   0.03432  -1.13327
   D16        0.91154   0.00118   0.03092  -0.00986   0.02111   0.93265
[...]
    A3        1.96372   0.00000   0.00000  -0.00003  -0.00003   1.96368
    A4        1.87317   0.00000   0.00000  -0.00002  -0.00002   1.87315
    A5        1.92870   0.00000   0.00000   0.00002   0.00002   1.92872
    A6        1.93840   0.00000   0.00000   0.00003   0.00003   1.93844
    A7        2.28112   0.00000   0.00000   0.00001   0.00001   2.28114
    A8        1.88063   0.00000   0.00000  -0.00002  -0.00002   1.88061
    A9        2.11941   0.00000   0.00000   0.00001   0.00001   2.11942
   A10        2.19209   0.00000   0.00000  -0.00002  -0.00002   2.19207
   A11        2.11942   0.00000   0.00000   0.00001   0.00001   2.11942
   A12        1.88057   0.00000   0.00000   0.00004   0.00004   1.88061
   A13        2.28118   0.00000   0.00000  -0.00005  -0.00005   2.28114
   A14        1.96363   0.00000   0.00000   0.00005   0.00005   1.96368
   A15        1.92876   0.00000   0.00000  -0.00004  -0.00004   1.92872
   A16        1.93847   0.00000   0.00000  -0.00003  -0.00003   1.93844
   A17        1.86720   0.00000   0.00000   0.00016   0.00016   1.86736
   A18        1.88875   0.00000   0.00000  -0.00002  -0.00002   1.88873
   A19        1.87327   0.00000   0.00000  -0.00011  -0.00011   1.87315
    D1        2.75943   0.00000   0.00000  -0.00263  -0.00263   2.75680
    D2       -0.31310   0.00000   0.00000  -0.00263  -0.00263  -0.31572
    D3       -1.43761   0.00000   0.00000  -0.00273  -0.00273  -1.44034
    D4        1.77306   0.00000   0.00000  -0.00273  -0.00273   1.77033
    D5        0.63925   0.00000   0.00000  -0.00272  -0.00272   0.63653
    D6       -2.43327   0.00000   0.00000  -0.00272  -0.00272  -2.43599
    D7       -2.74399   0.00000   0.00000   0.00012   0.00012  -2.74387
    D8        0.45896   0.00000   0.00000   0.00012   0.00012   0.45908
    D9        0.45926   0.00000   0.00000  -0.00018  -0.00018   0.45909
   D10       -2.74368   0.00000   0.00000  -0.00019  -0.00019  -2.74387
   D11       -0.31896   0.00000   0.00000   0.00322   0.00322  -0.31574
   D12        1.76689   0.00000   0.00000   0.00342   0.00342   1.77031
   D13       -2.43924   0.00000   0.00000   0.00324   0.00324  -2.43601
   D14        2.75357   0.00000   0.00000   0.00321   0.00321   2.75679
   D15       -1.44377   0.00000   0.00000   0.00342   0.00342  -1.44035
   D16        0.63329   0.00000   0.00000   0.00323   0.00323   0.63652
         Item               Value     Threshold  Converged?
 Maximum Force            0.000004     0.000450     YES
 RMS     Force            0.000002     0.000300     YES
 Maximum Displacement     0.005559     0.001800     NO 
 RMS     Displacement     0.001889     0.001200     NO 
 Predicted change in Energy=-9.762282D-09
 Optimization completed on the basis of negligible forces.
    -- Stationary point found.
                           ----------------------------
                           !   Optimized Parameters   !
                           ! (Angstroms and Degrees)  !
 --------------------------                            --------------------------
 ! Name  Definition              Value          Derivative Info.                !
 --------------------------------------------------------------------------------
 ! R1    R(1,2)                  1.1025         -DE/DX =    0.0                 !
 ! R2    R(1,3)                  1.1032         -DE/DX =    0.0                 !
 ! R3    R(1,4)                  1.1017         -DE/DX =    0.0                 !
 ! R4    R(1,5)                  1.4858         -DE/DX =    0.0                 !
 ! R5    R(5,6)                  1.1962         -DE/DX =    0.0                 !
 ! R6    R(5,7)                  1.408          -DE/DX =    0.0                 !
 ! R7    R(7,8)                  1.408          -DE/DX =    0.0                 !
 ! R8    R(8,9)                  1.1962         -DE/DX =    0.0                 !
 ! R9    R(8,10)                 1.4858         -DE/DX =    0.0                 !
 ! R10   R(10,11)                1.1025         -DE/DX =    0.0                 !
 ! R11   R(10,12)                1.1032         -DE/DX =    0.0                 !
 ! R12   R(10,13)                1.1017         -DE/DX =    0.0                 !
 ! A1    A(2,1,3)              106.9963         -DE/DX =    0.0                 !
 ! A2    A(2,1,4)              108.2122         -DE/DX =    0.0                 !
 ! A3    A(2,1,5)              112.5126         -DE/DX =    0.0                 !
 ! A4    A(3,1,4)              107.3249         -DE/DX =    0.0                 !
 ! A5    A(3,1,5)              110.5062         -DE/DX =    0.0                 !
 ! A6    A(4,1,5)              111.0623         -DE/DX =    0.0                 !
 ! A7    A(1,5,6)              130.6988         -DE/DX =    0.0                 !
 ! A8    A(1,5,7)              107.7524         -DE/DX =    0.0                 !
 ! A9    A(6,5,7)              121.4332         -DE/DX =    0.0                 !
 ! A10   A(5,7,8)              125.5974         -DE/DX =    0.0                 !
 ! A11   A(7,8,9)              121.4335         -DE/DX =    0.0                 !
 ! A12   A(7,8,10)             107.7487         -DE/DX =    0.0                 !
 ! A13   A(9,8,10)             130.7021         -DE/DX =    0.0                 !
 ! A14   A(8,10,11)            112.5079         -DE/DX =    0.0                 !
 ! A15   A(8,10,12)            110.5098         -DE/DX =    0.0                 !
 ! A16   A(8,10,13)            111.066          -DE/DX =    0.0                 !
 ! A17   A(11,10,12)           106.9828         -DE/DX =    0.0                 !
 ! A18   A(11,10,13)           108.2176         -DE/DX =    0.0                 !
 ! A19   A(12,10,13)           107.3303         -DE/DX =    0.0                 !
 ! D1    D(2,1,5,6)            158.1035         -DE/DX =    0.0                 !
 ! D2    D(2,1,5,7)            -17.9391         -DE/DX =    0.0                 !
 ! D3    D(3,1,5,6)            -82.3687         -DE/DX =    0.0                 !
 ! D4    D(3,1,5,7)            101.5887         -DE/DX =    0.0                 !
 ! D5    D(4,1,5,6)             36.6264         -DE/DX =    0.0                 !
 ! D6    D(4,1,5,7)           -139.4162         -DE/DX =    0.0                 !
 ! D7    D(1,5,7,8)           -157.2191         -DE/DX =    0.0                 !
 ! D8    D(6,5,7,8)             26.2966         -DE/DX =    0.0                 !
 ! D9    D(5,7,8,9)             26.3139         -DE/DX =    0.0                 !
 ! D10   D(5,7,8,10)          -157.2013         -DE/DX =    0.0                 !
 ! D11   D(7,8,10,11)          -18.2749         -DE/DX =    0.0                 !
 ! D12   D(7,8,10,12)          101.2351         -DE/DX =    0.0                 !
 ! D13   D(7,8,10,13)         -139.7584         -DE/DX =    0.0                 !
 ! D14   D(9,8,10,11)          157.7681         -DE/DX =    0.0                 !
 ! D15   D(9,8,10,12)          -82.7219         -DE/DX =    0.0                 !
 ! D16   D(9,8,10,13)           36.2846         -DE/DX =    0.0                 !
 --------------------------------------------------------------------------------
 GradGradGradGradGradGradGradGradGradGradGradGradGradGradGradGradGradGrad

 1|1|UNPC-DESKTOP-KC5UJLK|Freq|RPM6|ZDO|C4H6O3|23122|17-Mar-2022|0||#N 
 Geom=AllCheck Guess=TCheck SCRF=Check GenChk RPM6/ZDO Freq||Energy Cal
 culation(GC)||0,1|C,-1.934047712,-0.5113856424,1.8201057759|H,-1.51923
 78297,-1.4882337394,2.1186803979|H,-2.0217379366,0.0956137739,2.737124
 2083|H,-2.9535103505,-0.6733535157,1.4351456927|C,-1.0878995375,0.1828
 532806,0.8153292367|O,-1.358081691,1.0418665211,0.0278583916|O,0.18866
 77339,-0.4104063442,0.8456328774|C,1.3845211716,0.1956568211,0.4153359
 2|O,1.5169770413,1.3845447412,0.4165891502|C,2.3500142283,-0.886471265
 7,0.0923559102|H,2.0689992671,-1.8517239753,0.5448797311|H,2.402423364
 3,-1.0449346053,-0.9981575994|H,3.3643807409,-0.6275456098,0.435472837
 3||Version=IA32W-G09RevD.01|State=1-A|HF=-0.2207406|RMSD=8.082e-010|RM
 SF=3.037e-006|ZeroPoint=0.0888722|Thermal=0.0975352|Dipole=0.1090408,-
 1.6262327,0.6240394|DipoleDeriv=-1.0843633,-0.0473051,0.1075557,0.0466
 324,-0.8228269,0.0113481,0.0646558,0.0659972,-0.9621836,0.2150884,-0.0
 22129,0.0346984,0.024395,0.3080339,-0.0323149,-0.007574,-0.0240416,0.2
 593618,0.2259488,-0.0115272,0.0023215,-0.0525964,0.2199838,0.0717899,-
 0.0325868,0.0262392,0.3171933,0.3172165,0.0396571,-0.0077758,0.0017824
 ,0.2254597,0.0388638,0.0687611,0.0335905,0.2045678,2.5125092,-0.310921
 1,-0.0990624,-1.0284485,1.1818823,-0.4515188,0.2270328,-0.5017201,1.25
 24977,-0.7672992,0.1307808,-0.0240281,0.4290043,-0.7806647,0.3117485,-
 0.3045658,0.3645803,-0.7653893,-2.7274783,-0.0629611,0.1703759,0.02657
 ,-0.7801872,0.0924629,0.4037856,0.1081218,-0.6065112,2.3356422,0.24664
 16,-0.3588163,0.9959261,1.8246401,-0.0209166,-0.6029373,0.034796,0.786
 7456,-0.6915538,-0.0666257,0.0810231,-0.4731786,-1.179311,0.0300516,0.
 0794423,-0.0417456,-0.4424082,-1.08816,0.0826596,0.0632687,-0.0132086,
 -0.913474,-0.0395462,0.1006344,-0.0945434,-0.8679907,0.2158024,0.02664
 01,0.01457,-0.0357247,0.3146397,-0.0145475,0.0156496,-0.025669,0.25222
 05,0.2191294,0.0139197,-0.0034621,0.0185303,0.2188491,0.0193518,-0.061
 8941,0.0585055,0.3253081,0.3175242,-0.0188306,0.0193249,0.0603171,0.18
 29741,-0.0167711,0.0495965,-0.0041068,0.2465903|Polar=53.9884249,-1.61
 16618,45.7620499,-5.0522765,-8.5759627,27.7024517|HyperPolar=-5.333917
 5,28.0073883,-16.525336,-67.8137873,-5.9704829,-29.4270455,20.7503462,
 25.0688736,-7.6395492,3.4368781|PG=C01 [X(C4H6O3)]|NImag=0||0.44099975
 ,0.01237034,0.41808298,-0.02697408,-0.03674434,0.42840702,-0.06293745,
 0.06212286,-0.01931989,0.06739797,0.06046444,-0.17753163,0.04346672,-0
 .07032839,0.21734970,-0.01846890,0.04146464,-0.04606122,0.01801186,-0.
 06124486,0.05581080,-0.03346883,0.00795286,0.01125325,0.00220042,0.008
 47472,0.00613261,0.03579983,0.00759771,-0.08875188,-0.08447528,0.00537
 242,-0.01812869,-0.01513648,-0.00786337,0.09999168,0.01092722,-0.08433
 711,-0.15826675,0.00156008,-0.00404224,0.00350758,-0.02145956,0.100719
 49,0.19785489,-0.18866339,-0.02448952,-0.06041907,-0.01312038,0.005742
 37,-0.00807989,-0.00118174,-0.00382763,-0.00691758,0.23400250,-0.02364
 028,-0.03913599,-0.00809169,0.01721515,0.00118233,0.00819033,-0.011263
 57,-0.00053295,-0.00957822,0.03672863,0.03994332,-0.06237289,-0.009282
 36,-0.05681726,-0.00817925,0.00254045,0.00007867,-0.01671791,-0.007220
 59,-0.01056694,0.06775152,0.00783175,0.06363318,-0.11558874,-0.0422318
 7,0.05396173,0.01134596,-0.00545357,0.00128895,-0.00011612,0.00016243,
 0.01753380,-0.03095066,-0.01991778,0.01769092,0.42722797,-0.04764834,-
 0.11218817,0.04422486,-0.01467818,-0.02196677,0.02609001,0.00373880,0.
 01196936,-0.00440603,-0.01660307,-0.00067457,0.00615574,-0.07392543,0.
 61682068,0.06023864,0.04491603,-0.14344989,0.00494478,0.01877652,-0.01
 019238,0.02298833,0.00526874,-0.03474193,0.00901813,0.00004680,0.00707
 342,-0.01006643,-0.41758495,0.60659940,0.01087130,-0.01262516,0.014571
 93,-0.00182135,-0.00003908,0.00129289,-0.00109247,-0.00018229,-0.00011
 968,0.00004260,0.00117550,-0.00067426,-0.07762837,0.11105887,-0.108397
 63,0.11373122,-0.00677829,-0.01397751,0.03965143,-0.00076234,0.0003981
 5,0.00060500,-0.00044396,-0.00347022,0.00047603,0.00257407,-0.00039700
 ,-0.00020493,0.09101805,-0.43032840,0.35377345,-0.15143570,0.48553340,
 0.00939180,0.04088400,-0.02559346,0.00277789,0.00027489,-0.00194082,-0
 .00131789,0.00073651,0.00190665,-0.00196952,0.00065082,-0.00148128,-0.
 08898024,0.34338994,-0.38268713,0.12266708,-0.41936888,0.40879028,-0.0
 5341106,-0.00408508,0.02905191,-0.00243028,0.00176771,-0.00094014,-0.0
 0146936,-0.00173061,-0.00267753,0.00093826,-0.00028554,0.00215357,-0.1
 3642483,0.02406766,0.00868734,-0.04820155,0.07713576,-0.04813543,0.456
 01303,-0.00908411,0.01435554,0.00214415,0.00110304,-0.00058959,-0.0006
 5153,-0.00086038,-0.00164047,0.00049428,-0.00021189,-0.00069570,0.0011
 4714,0.06164062,-0.09089165,0.00721798,0.04885713,-0.02643432,0.027072
 06,-0.00630350,0.24075819,0.02738371,0.00234522,-0.00012246,-0.0000993
 3,-0.00014464,-0.00107898,-0.00088305,0.00037208,0.00044240,0.00014533
 ,0.00075166,-0.00175515,-0.01464682,0.01673935,-0.04358671,-0.02557842
 ,0.01828776,0.00567554,-0.04884351,-0.07742003,0.07785288,0.00687024,0
 .00078985,-0.00365315,-0.00068786,-0.00167303,0.00136722,-0.00076775,0
 .00081110,0.00185140,-0.00158034,-0.00013231,-0.00017920,-0.08873840,0
 .02330367,0.00696934,0.00749142,-0.01231783,0.00792431,-0.12552440,-0.
 05956918,0.03153761,0.41826759,0.01169989,-0.00410891,-0.00155268,-0.0
 0079542,-0.00095210,0.00149785,0.00031670,0.00143550,0.00127295,-0.000
 29692,0.00056590,-0.00124121,-0.03035846,0.05407000,-0.02071810,0.0044
 1588,-0.02104412,0.01196687,-0.01648968,-0.09007981,0.02180971,-0.0215
 5320,1.03073164,-0.00120457,0.00105951,0.00206573,0.00037533,0.0007562
 1,-0.00013882,0.00006285,-0.00021993,-0.00008386,0.00060230,0.00033443
 ,0.00002613,0.02765446,-0.02189467,0.00396792,-0.00392476,0.00890945,-
 0.00801267,0.02256030,0.03229197,-0.05527855,-0.07100531,0.03040114,0.
 20165174,-0.00123753,-0.00002787,0.00115338,0.00011654,0.00040163,-0.0
 0026858,0.00014039,-0.00013111,-0.00034663,0.00041638,0.00013052,0.000
 02842,0.00586909,-0.00202638,-0.00118277,-0.00252385,-0.00102298,-0.00
 048817,-0.03015307,-0.05246072,0.01360719,-0.05450656,-0.07279993,-0.0
 0403542,0.07777861,-0.00416689,0.00281412,0.00129772,0.00066247,0.0002
 7760,-0.00070833,-0.00000815,-0.00075836,-0.00052670,0.00040314,-0.000
 17689,0.00020671,0.01846142,-0.02411751,0.00611115,-0.00104107,0.00819
 556,-0.00466531,-0.08814025,-0.05129411,0.02361861,-0.04541017,-0.7792
 4464,-0.01457034,0.10177540,0.90313084,0.00035715,0.00003864,0.0003590
 6,-0.00008681,-0.00014608,-0.00006896,-0.00015699,-0.00013110,-0.00008
 741,-0.00006755,-0.00007320,-0.00006852,-0.00325917,0.00371077,-0.0033
 1416,-0.00073903,-0.00082934,0.00227123,0.01687933,0.01353760,0.012487
 77,-0.00431006,-0.00289747,-0.05691281,-0.01336523,-0.00249339,0.02715
 842,-0.00398386,0.00047223,0.00083039,0.00015895,0.00054024,-0.0005517
 9,0.00004272,-0.00031431,-0.00054495,0.00028898,-0.00006980,0.00043284
 ,0.00837277,-0.00819627,0.00628682,-0.00173806,0.00292399,-0.00226363,
 -0.05643308,0.01737676,0.01792751,-0.13157434,0.07933683,0.01708314,0.
 00671743,0.01860482,0.00419922,0.44641585,-0.00038427,0.00097900,-0.00
 014913,0.00018224,-0.00040649,-0.00007783,-0.00007365,-0.00016021,-0.0
 0001158,-0.00008252,-0.00018554,0.00000058,-0.00182882,-0.00242699,0.0
 0268295,0.00043163,0.00149141,-0.00097054,0.01476881,0.01032401,-0.006
 50095,0.07101077,-0.15322465,-0.02192545,0.02636812,-0.05480018,-0.011
 24304,-0.02829069,0.45266301,0.00118150,-0.00048249,0.00009884,-0.0002
 9579,-0.00017277,-0.00008596,-0.00008225,0.00010149,-0.00004593,-0.000
 15214,-0.00009760,-0.00021577,-0.00310169,0.00449044,-0.00112933,0.001
 22789,-0.00193849,0.00218429,0.02247638,-0.00587297,0.00692403,0.01597
 550,-0.02173043,-0.08641928,0.00397339,-0.00967686,0.01938276,-0.01533
 252,0.00863350,0.38841889,0.00027514,-0.00027803,-0.00014971,-0.000141
 51,0.00010163,0.00010169,-0.00002407,0.00006206,0.00007095,-0.00007026
 ,0.00004185,0.00002235,-0.00106740,0.00091503,-0.00025870,0.00026280,-
 0.00057812,0.00039984,-0.00201559,-0.00107616,0.00075926,0.00793633,0.
 01975751,-0.00713537,-0.00205910,0.00223119,0.00173969,-0.04876406,-0.
 04261104,0.01953275,0.05184113,-0.00070997,-0.00026107,0.00023904,-0.0
 0006286,0.00030463,-0.00006799,0.00000821,-0.00000636,-0.00008455,0.00
 005216,0.00005903,0.00009658,0.00225804,-0.00134348,0.00052610,-0.0005
 2929,0.00042088,-0.00034010,-0.00215486,-0.00076404,-0.00027781,0.0108
 4360,-0.03603711,0.00616731,0.00072328,-0.00071374,-0.00089791,-0.0409
 2672,-0.17229407,0.06555025,0.04226409,0.21800313,-0.00008667,0.000130
 60,-0.00034653,0.00016649,-0.00008744,0.00010844,0.00007610,-0.0000133
 3,0.00005883,0.00001800,0.00000730,0.00002642,-0.00003260,-0.00012594,
 0.00062961,0.00002732,0.00018232,-0.00035628,0.00052305,0.00015302,-0.
 00131133,-0.00275806,-0.00114688,0.00728206,0.00115906,-0.00136568,-0.
 00058920,0.01881159,0.06757322,-0.06544183,-0.02423193,-0.08056413,0.0
 7068222,0.00002276,0.00002481,-0.00011253,-0.00002138,0.00003721,0.000
 06162,-0.00002349,0.00001504,0.00005627,-0.00004041,0.00002666,0.00004
 066,-0.00069206,-0.00037136,0.00034458,0.00013674,-0.00004281,-0.00017
 880,-0.00162486,0.00003028,-0.00127284,-0.00122944,0.01263472,0.022098
 37,-0.00114300,-0.00033761,-0.00150313,-0.03272477,0.00073041,0.007794
 50,0.00334040,-0.00161187,0.00718222,0.03591721,-0.00011250,-0.0001666
 9,-0.00001118,-0.00000980,0.00007671,0.00000887,0.00002171,0.00001286,
 -0.00001538,0.00001682,0.00002611,0.00002137,0.00052727,0.00025791,-0.
 00005118,-0.00009606,-0.00015039,0.00015626,-0.00053055,-0.00118423,0.
 00092821,0.01119744,-0.00669662,-0.02622518,0.00023892,-0.00169513,0.0
 0231318,0.00077671,-0.03582225,-0.02515105,-0.00181847,0.00067508,0.01
 839403,-0.00753744,0.04201776,-0.00062727,0.00003515,-0.00001984,0.000
 08540,0.00008150,-0.00002626,0.00005481,-0.00003152,-0.00004953,0.0000
 7267,0.00001523,0.00008721,0.00217042,-0.00130466,0.00101705,-0.000447
 48,0.00052302,-0.00069148,-0.00316239,0.00056082,0.00013933,0.01455323
 ,-0.01743982,-0.01495303,-0.00047179,0.00272180,0.00017778,0.00733333,
 -0.02534245,-0.21193327,0.00306015,0.00671233,-0.01644226,-0.01472108,
 0.03722929,0.25570385,0.00025185,0.00000490,-0.00019422,-0.00005956,-0
 .00003584,0.00005239,-0.00003963,0.00002840,0.00006614,-0.00008142,-0.
 00000905,0.00000332,-0.00160970,0.00036463,0.00042836,0.00046963,-0.00
 026962,0.00017241,0.00073706,0.00055785,-0.00003716,-0.03595706,0.0141
 3281,-0.00313096,0.00058477,-0.00303467,0.00031246,-0.18677831,-0.0402
 2122,-0.05319740,-0.00951373,-0.01015388,-0.00085458,-0.00191784,-0.00
 267401,-0.00790015,0.23391405,0.00039221,-0.00010996,0.00000039,-0.000
 02117,-0.00001375,0.00003032,0.00000008,0.00003979,0.00003913,-0.00000
 565,0.00002193,-0.00005123,-0.00035154,0.00081887,-0.00096523,0.000009
 51,-0.00023720,0.00021333,0.00198014,-0.00186272,-0.00050968,0.0226988
 8,0.00458422,0.00491590,-0.00116881,-0.00161731,-0.00088866,-0.0422337
 7,-0.04613726,-0.01365301,-0.01901157,-0.00804284,-0.00313716,-0.00359
 798,0.00264890,-0.00376075,0.04130974,0.04990732,0.00025426,-0.0000274
 7,-0.00025343,0.00005924,-0.00005833,0.00008788,0.00004986,0.00002991,
 0.00007207,-0.00000216,0.00001247,-0.00002006,-0.00021351,0.00051536,-
 0.00018593,0.00009412,-0.00006679,-0.00006475,0.00142733,-0.00067490,-
 0.00038872,0.00172714,-0.00022187,0.00680534,0.00023712,0.00005066,-0.
 00079584,-0.05421207,-0.01266926,-0.05173762,0.00608903,0.00294083,0.0
 0569988,-0.01978972,-0.00759717,-0.01300945,0.06427940,0.01776664,0.05
 379069||-0.00000536,0.00000642,0.00000572,0.00000008,-0.00000119,0.000
 00005,0.00000243,-0.00000169,-0.00000219,0.00000212,-0.00000247,-0.000
 00264,-0.00000442,-0.00000038,-0.00000089,0.00000167,-0.00000140,0.000
 00204,0.00000627,0.00000170,-0.00000454,0.00000053,0.00000140,0.000001
 45,-0.00000152,-0.00000027,0.00000097,0.00000205,0.00000765,-0.0000031
 4,0.00000063,-0.00000433,0.00000026,-0.00000276,-0.00000390,0.00000088
 ,-0.00000173,-0.00000153,0.00000202|||@


 THE WORLD OF CHEMICAL REACTIONS IS LIKE A STAGE,
 ON WHICH SCENE AFTER SCENE IS CEASELESSLY PLAYED.
 THE ACTORS ON IT ARE THE ELEMENTS.
   -- CLEMENS WINKLER   BER. 30,13(1897)
 (DISCOVERER OF GERMANIUM, FEB 6, 1886)
 Job cpu time:       0 days  0 hours  0 minutes  5.0 seconds.
 File lengths (MBytes):  RWF=      8 Int=      0 D2E=      0 Chk=      2 Scr=      1
 Normal termination of Gaussian 09 at Thu Mar 17 12:35:16 2022.
