opt freq(GC)                                                            
Freq      RPM6                                                        ZDO                 
Number of atoms                            I               15
Info1-9                                    I   N=           9
          25          24        1002           0           0         100
           6           8         302
Charge                                     I                0
Multiplicity                               I                1
Number of electrons                        I               46
Number of alpha electrons                  I               23
Number of beta electrons                   I               23
Number of basis functions                  I               42
Number of independent functions            I               42
Number of point charges in /Mol/           I                0
Number of translation vectors              I                0
Atomic numbers                             I   N=          15
           6           6           6           6           6           6
           1           1           1           1           1           6
           8           8           1
Nuclear charges                            R   N=          15
  4.00000000E+00  4.00000000E+00  4.00000000E+00  4.00000000E+00  4.00000000E+00
  4.00000000E+00  1.00000000E+00  1.00000000E+00  1.00000000E+00  1.00000000E+00
  1.00000000E+00  4.00000000E+00  6.00000000E+00  6.00000000E+00  1.00000000E+00
Current cartesian coordinates              R   N=          45
  1.00488158E+00  2.34672837E+00 -7.57738758E-05 -4.06408535E-01  9.79209725E-02
 -1.28873810E-04  8.17623742E-01 -2.25469860E+00 -7.33000113E-05  3.45492944E+00
 -2.35206409E+00  3.86760227E-05  4.86279666E+00 -1.13342221E-01  9.29662671E-05
  3.64068720E+00  2.23221716E+00  2.56318326E-05  2.65587675E-02  4.16715457E+00
 -1.22906748E-04 -3.04074237E-01 -3.99008782E+00 -1.11263108E-04  4.41491999E+00
 -4.17296390E+00  7.87777912E-05  6.92188097E+00 -1.96886109E-01  1.68724413E-04
  4.74362132E+00  3.97050587E+00  5.70543504E-05 -3.19102806E+00  2.89501814E-01
 -2.47301423E-04 -4.51964539E+00  2.15155373E+00  1.60814267E-04 -4.31906597E+00
 -2.06478991E+00  6.41176385E-05 -6.19410808E+00 -1.94941357E+00  3.38008049E-04
Force Field                                I                0
Int Atom Types                             I   N=          15
           0           0           0           0           0           0
           0           0           0           0           0           0
           0           0           0
MM charges                                 R   N=          15
  0.00000000E+00  0.00000000E+00  0.00000000E+00  0.00000000E+00  0.00000000E+00
  0.00000000E+00  0.00000000E+00  0.00000000E+00  0.00000000E+00  0.00000000E+00
  0.00000000E+00  0.00000000E+00  0.00000000E+00  0.00000000E+00  0.00000000E+00
Integer atomic weights                     I   N=          15
          12          12          12          12          12          12
           1           1           1           1           1          12
          16          16           1
Real atomic weights                        R   N=          15
  1.20000000E+01  1.20000000E+01  1.20000000E+01  1.20000000E+01  1.20000000E+01
  1.20000000E+01  1.00782504E+00  1.00782504E+00  1.00782504E+00  1.00782504E+00
  1.00782504E+00  1.20000000E+01  1.59949146E+01  1.59949146E+01  1.00782504E+00
Atom fragment info                         I   N=          15
           0           0           0           0           0           0
           0           0           0           0           0           0
           0           0           0
Atom residue num                           I   N=          15
           0           0           0           0           0           0
           0           0           0           0           0           0
           0           0           0
Nuclear spins                              I   N=          15
           0           0           0           0           0           0
           1           1           1           1           1           0
           0           0           1
Nuclear ZEff                               R   N=          15
 -3.90000000E+00 -3.90000000E+00 -3.90000000E+00 -3.90000000E+00 -3.90000000E+00
 -3.90000000E+00 -1.00000000E+00 -1.00000000E+00 -1.00000000E+00 -1.00000000E+00
 -1.00000000E+00 -3.90000000E+00 -6.00000000E+00 -6.00000000E+00 -1.00000000E+00
Nuclear ZNuc                               R   N=          15
  6.00000000E+00  6.00000000E+00  6.00000000E+00  6.00000000E+00  6.00000000E+00
  6.00000000E+00  1.00000000E+00  1.00000000E+00  1.00000000E+00  1.00000000E+00
  1.00000000E+00  6.00000000E+00  8.00000000E+00  8.00000000E+00  1.00000000E+00
Nuclear QMom                               R   N=          15
  0.00000000E+00  0.00000000E+00  0.00000000E+00  0.00000000E+00  0.00000000E+00
  0.00000000E+00  0.00000000E+00  0.00000000E+00  0.00000000E+00  0.00000000E+00
  0.00000000E+00  0.00000000E+00  0.00000000E+00  0.00000000E+00  0.00000000E+00
Nuclear GFac                               R   N=          15
  0.00000000E+00  0.00000000E+00  0.00000000E+00  0.00000000E+00  0.00000000E+00
  0.00000000E+00  2.79284600E+00  2.79284600E+00  2.79284600E+00  2.79284600E+00
  2.79284600E+00  0.00000000E+00  0.00000000E+00  0.00000000E+00  2.79284600E+00
MicOpt                                     I   N=          15
          -1          -1          -1          -1          -1          -1
          -1          -1          -1          -1          -1          -1
          -1          -1          -1
Number of contracted shells                I               15
Number of primitive shells                 I               90
Pure/Cartesian d shells                    I                0
Pure/Cartesian f shells                    I                0
Highest angular momentum                   I                1
Largest degree of contraction              I                6
Shell types                                I   N=          15
          -1          -1          -1          -1          -1          -1
           0           0           0           0           0          -1
          -1          -1           0
Number of primitives per shell             I   N=          15
           6           6           6           6           6           6
           6           6           6           6           6           6
           6           6           6
Shell to atom map                          I   N=          15
           1           2           3           4           5           6
           7           8           9          10          11          12
          13          14          15
Primitive exponents                        R   N=          90
  1.14476344E+01  3.29633588E+00  1.29653143E+00  5.92558930E-01  2.94896438E-01
  1.51447622E-01  1.14476344E+01  3.29633588E+00  1.29653143E+00  5.92558930E-01
  2.94896438E-01  1.51447622E-01  1.14476344E+01  3.29633588E+00  1.29653143E+00
  5.92558930E-01  2.94896438E-01  1.51447622E-01  1.14476344E+01  3.29633588E+00
  1.29653143E+00  5.92558930E-01  2.94896438E-01  1.51447622E-01  1.14476344E+01
  3.29633588E+00  1.29653143E+00  5.92558930E-01  2.94896438E-01  1.51447622E-01
  1.14476344E+01  3.29633588E+00  1.29653143E+00  5.92558930E-01  2.94896438E-01
  1.51447622E-01  4.39461478E+00  1.26542531E+00  4.97723458E-01  2.27476537E-01
  1.13207340E-01  5.81389949E-02  4.39461478E+00  1.26542531E+00  4.97723458E-01
  2.27476537E-01  1.13207340E-01  5.81389949E-02  4.39461478E+00  1.26542531E+00
  4.97723458E-01  2.27476537E-01  1.13207340E-01  5.81389949E-02  4.39461478E+00
  1.26542531E+00  4.97723458E-01  2.27476537E-01  1.13207340E-01  5.81389949E-02
  4.39461478E+00  1.26542531E+00  4.97723458E-01  2.27476537E-01  1.13207340E-01
  5.81389949E-02  1.14476344E+01  3.29633588E+00  1.29653143E+00  5.92558930E-01
  2.94896438E-01  1.51447622E-01  8.02643074E+01  2.31120341E+01  9.09054165E+00
  4.15468650E+00  2.06764625E+00  1.06186467E+00  8.02643074E+01  2.31120341E+01
  9.09054165E+00  4.15468650E+00  2.06764625E+00  1.06186467E+00  4.39461478E+00
  1.26542531E+00  4.97723458E-01  2.27476537E-01  1.13207340E-01  5.81389949E-02
Contraction coefficients                   R   N=          90
 -9.73739553E-03 -7.26587678E-02 -1.71615520E-01  1.28977624E-01  7.28861451E-01
  3.01331742E-01 -9.73739553E-03 -7.26587678E-02 -1.71615520E-01  1.28977624E-01
  7.28861451E-01  3.01331742E-01 -9.73739553E-03 -7.26587678E-02 -1.71615520E-01
  1.28977624E-01  7.28861451E-01  3.01331742E-01 -9.73739553E-03 -7.26587678E-02
 -1.71615520E-01  1.28977624E-01  7.28861451E-01  3.01331742E-01 -9.73739553E-03
 -7.26587678E-02 -1.71615520E-01  1.28977624E-01  7.28861451E-01  3.01331742E-01
 -9.73739553E-03 -7.26587678E-02 -1.71615520E-01  1.28977624E-01  7.28861451E-01
  3.01331742E-01 -9.73739553E-03 -7.26587678E-02 -1.71615520E-01  1.28977624E-01
  7.28861451E-01  3.01331742E-01 -9.73739553E-03 -7.26587678E-02 -1.71615520E-01
  1.28977624E-01  7.28861451E-01  3.01331742E-01 -9.73739553E-03 -7.26587678E-02
 -1.71615520E-01  1.28977624E-01  7.28861451E-01  3.01331742E-01 -9.73739553E-03
 -7.26587678E-02 -1.71615520E-01  1.28977624E-01  7.28861451E-01  3.01331742E-01
 -9.73739553E-03 -7.26587678E-02 -1.71615520E-01  1.28977624E-01  7.28861451E-01
  3.01331742E-01 -9.73739553E-03 -7.26587678E-02 -1.71615520E-01  1.28977624E-01
  7.28861451E-01  3.01331742E-01 -9.73739553E-03 -7.26587678E-02 -1.71615520E-01
  1.28977624E-01  7.28861451E-01  3.01331742E-01 -9.73739553E-03 -7.26587678E-02
 -1.71615520E-01  1.28977624E-01  7.28861451E-01  3.01331742E-01 -9.73739553E-03
 -7.26587678E-02 -1.71615520E-01  1.28977624E-01  7.28861451E-01  3.01331742E-01
P(S=P) Contraction coefficients            R   N=          90
 -8.10494336E-03 -1.71547892E-02  7.36978576E-02  3.96514999E-01  4.97808488E-01
  1.17482582E-01 -8.10494336E-03 -1.71547892E-02  7.36978576E-02  3.96514999E-01
  4.97808488E-01  1.17482582E-01 -8.10494336E-03 -1.71547892E-02  7.36978576E-02
  3.96514999E-01  4.97808488E-01  1.17482582E-01 -8.10494336E-03 -1.71547892E-02
  7.36978576E-02  3.96514999E-01  4.97808488E-01  1.17482582E-01 -8.10494336E-03
 -1.71547892E-02  7.36978576E-02  3.96514999E-01  4.97808488E-01  1.17482582E-01
 -8.10494336E-03 -1.71547892E-02  7.36978576E-02  3.96514999E-01  4.97808488E-01
  1.17482582E-01  0.00000000E+00  0.00000000E+00  0.00000000E+00  0.00000000E+00
  0.00000000E+00  0.00000000E+00  0.00000000E+00  0.00000000E+00  0.00000000E+00
  0.00000000E+00  0.00000000E+00  0.00000000E+00  0.00000000E+00  0.00000000E+00
  0.00000000E+00  0.00000000E+00  0.00000000E+00  0.00000000E+00  0.00000000E+00
  0.00000000E+00  0.00000000E+00  0.00000000E+00  0.00000000E+00  0.00000000E+00
  0.00000000E+00  0.00000000E+00  0.00000000E+00  0.00000000E+00  0.00000000E+00
  0.00000000E+00 -8.10494336E-03 -1.71547892E-02  7.36978576E-02  3.96514999E-01
  4.97808488E-01  1.17482582E-01 -8.10494336E-03 -1.71547892E-02  7.36978576E-02
  3.96514999E-01  4.97808488E-01  1.17482582E-01 -8.10494336E-03 -1.71547892E-02
  7.36978576E-02  3.96514999E-01  4.97808488E-01  1.17482582E-01  0.00000000E+00
  0.00000000E+00  0.00000000E+00  0.00000000E+00  0.00000000E+00  0.00000000E+00
Coordinates of each shell                  R   N=          45
  1.00488158E+00  2.34672837E+00 -7.57738758E-05 -4.06408535E-01  9.79209725E-02
 -1.28873810E-04  8.17623742E-01 -2.25469860E+00 -7.33000113E-05  3.45492944E+00
 -2.35206409E+00  3.86760227E-05  4.86279666E+00 -1.13342221E-01  9.29662671E-05
  3.64068720E+00  2.23221716E+00  2.56318326E-05  2.65587675E-02  4.16715457E+00
 -1.22906748E-04 -3.04074237E-01 -3.99008782E+00 -1.11263108E-04  4.41491999E+00
 -4.17296390E+00  7.87777912E-05  6.92188097E+00 -1.96886109E-01  1.68724413E-04
  4.74362132E+00  3.97050587E+00  5.70543504E-05 -3.19102806E+00  2.89501814E-01
 -2.47301423E-04 -4.51964539E+00  2.15155373E+00  1.60814267E-04 -4.31906597E+00
 -2.06478991E+00  6.41176385E-05 -6.19410808E+00 -1.94941357E+00  3.38008049E-04
Constraint Structure                       R   N=          45
  1.00488158E+00  2.34672837E+00 -7.57738758E-05 -4.06408535E-01  9.79209725E-02
 -1.28873810E-04  8.17623742E-01 -2.25469860E+00 -7.33000113E-05  3.45492944E+00
 -2.35206409E+00  3.86760227E-05  4.86279666E+00 -1.13342221E-01  9.29662671E-05
  3.64068720E+00  2.23221716E+00  2.56318326E-05  2.65587675E-02  4.16715457E+00
 -1.22906748E-04 -3.04074237E-01 -3.99008782E+00 -1.11263108E-04  4.41491999E+00
 -4.17296390E+00  7.87777912E-05  6.92188097E+00 -1.96886109E-01  1.68724413E-04
  4.74362132E+00  3.97050587E+00  5.70543504E-05 -3.19102806E+00  2.89501814E-01
 -2.47301423E-04 -4.51964539E+00  2.15155373E+00  1.60814267E-04 -4.31906597E+00
 -2.06478991E+00  6.41176385E-05 -6.19410808E+00 -1.94941357E+00  3.38008049E-04
Num ILSW                                   I              100
ILSW                                       I   N=         100
           0           0           0           1           2           0
           0           0           0           0           0          -1
           0           0           0           0           2           0
           0           0           1           0           1           0
           1           0           0           0           0           0
           0           0      100000           0          -1           0
           0           0           0           0           0           0
           0           0           0          40           0           0
           0           0           1           0           0           0
           0           0           4          41           0           0
           0           0           0           0           0           0
           0           0           0           0           0           0
           0           0           0           0           0           0
           0           0           0           0           0           0
           0           0           0           0           0           0
           0           0           0           0           0           0
           0           0           0           0
Num RLSW                                   I               41
RLSW                                       R   N=          41
  1.00000000E+00  1.00000000E+00  1.00000000E+00  1.00000000E+00  1.00000000E+00
  0.00000000E+00  0.00000000E+00  1.00000000E+00  0.00000000E+00  0.00000000E+00
  0.00000000E+00  0.00000000E+00  1.00000000E+00  0.00000000E+00  0.00000000E+00
  0.00000000E+00  0.00000000E+00  1.00000000E+00  0.00000000E+00  0.00000000E+00
  0.00000000E+00  0.00000000E+00  1.00000000E+00  0.00000000E+00  0.00000000E+00
  0.00000000E+00  0.00000000E+00  1.00000000E+00  0.00000000E+00  0.00000000E+00
  0.00000000E+00  0.00000000E+00  1.00000000E+00  0.00000000E+00  0.00000000E+00
  0.00000000E+00  0.00000000E+00  0.00000000E+00  1.00000000E+00  1.00000000E+00
  0.00000000E+00
MxBond                                     I                3
NBond                                      I   N=          15
           3           3           3           3           3           3
           1           1           1           1           1           3
           1           2           1
IBond                                      I   N=          45
           2           6           7           1           3          12
           2           4           8           3           5           9
           4           6          10           1           5          11
           1           0           0           3           0           0
           4           0           0           5           0           0
           6           0           0           2          13          14
          12           0           0          12          15           0
          14           0           0
RBond                                      R   N=          45
  1.50000000E+00  1.50000000E+00  1.00000000E+00  1.50000000E+00  1.50000000E+00
  1.00000000E+00  1.50000000E+00  1.50000000E+00  1.00000000E+00  1.50000000E+00
  1.50000000E+00  1.00000000E+00  1.50000000E+00  1.50000000E+00  1.00000000E+00
  1.50000000E+00  1.50000000E+00  1.00000000E+00  1.00000000E+00  0.00000000E+00
  0.00000000E+00  1.00000000E+00  0.00000000E+00  0.00000000E+00  1.00000000E+00
  0.00000000E+00  0.00000000E+00  1.00000000E+00  0.00000000E+00  0.00000000E+00
  1.00000000E+00  0.00000000E+00  0.00000000E+00  1.00000000E+00  2.00000000E+00
  1.00000000E+00  2.00000000E+00  0.00000000E+00  0.00000000E+00  1.00000000E+00
  1.00000000E+00  0.00000000E+00  1.00000000E+00  0.00000000E+00  0.00000000E+00
Virial Ratio                               R      9.962090489869446E-01
SCF Energy                                 R     -1.025201571455341E-01
Total Energy                               R     -1.025201571455341E-01
RMS Force                                  R      1.070106733674019E-04
RMS Density                                R      1.796487048239969E-10
External E-field                           R   N=          35
  0.00000000E+00  0.00000000E+00  0.00000000E+00  0.00000000E+00  0.00000000E+00
  0.00000000E+00  0.00000000E+00  0.00000000E+00  0.00000000E+00  0.00000000E+00
  0.00000000E+00  0.00000000E+00  0.00000000E+00  0.00000000E+00  0.00000000E+00
  0.00000000E+00  0.00000000E+00  0.00000000E+00  0.00000000E+00  0.00000000E+00
  0.00000000E+00  0.00000000E+00  0.00000000E+00  0.00000000E+00  0.00000000E+00
  0.00000000E+00  0.00000000E+00  0.00000000E+00  0.00000000E+00  0.00000000E+00
  0.00000000E+00  0.00000000E+00  0.00000000E+00  0.00000000E+00  0.00000000E+00
IOpCl                                      I                0
IROHF                                      I                0
Alpha Orbital Energies                     R   N=          42
 -1.18984704E+00 -1.12301913E+00 -1.11728815E+00 -9.98760696E-01 -9.72939318E-01
 -8.71183999E-01 -8.05708815E-01 -7.61746646E-01 -6.75380877E-01 -6.52683831E-01
 -6.06776258E-01 -5.91372624E-01 -5.76308948E-01 -5.65108922E-01 -5.41838962E-01
 -5.12193445E-01 -5.00453806E-01 -4.72212661E-01 -4.58093737E-01 -4.50631540E-01
 -4.14484872E-01 -3.78842939E-01 -3.74497328E-01 -2.88421277E-02 -4.49279897E-03
  3.30996350E-02  6.18576363E-02  8.06999557E-02  1.09271418E-01  1.37310988E-01
  1.48012022E-01  1.56118113E-01  1.61787437E-01  1.67256440E-01  1.73400611E-01
  1.81041500E-01  1.84972855E-01  1.97241873E-01  2.06690784E-01  2.07332643E-01
  2.12719851E-01  2.16288649E-01
Alpha MO coefficients                      R   N=        1764
  3.97042909E-02 -3.54763727E-02 -1.19297190E-02  5.55903867E-07  1.04721969E-01
 -9.44906163E-02  3.01962172E-02  4.77642504E-06  7.59920322E-03 -2.08943924E-02
  1.26228670E-02  1.03358365E-06 -1.00184153E-02 -4.77748061E-05 -1.03732568E-04
  3.15969382E-07 -7.15764255E-03  7.58835959E-04  1.31849108E-03  4.39187656E-08
 -2.00837613E-03 -6.48206844E-03  1.28286724E-03  5.73060003E-08  2.58420008E-02
  6.78945225E-03 -3.79969625E-03 -2.63856949E-03 -1.10379961E-03  5.04226832E-01
 -2.11329968E-01  1.61224563E-01  7.49767420E-05  6.26703287E-01  1.78396714E-01
 -2.82630800E-01 -5.19400587E-05  3.09144478E-01 -2.68102907E-02  1.74577790E-01
  1.29827602E-06  1.36001462E-01  4.49582773E-02  2.10218839E-02 -3.40535373E-02
  8.29248706E-07  1.23673284E-01  6.61861727E-03 -7.17966407E-02  6.20179445E-07
  1.44776010E-01 -8.63089668E-03  3.56704728E-02 -2.78811815E-07  9.63782654E-02
 -2.92652386E-02  2.65012170E-02 -1.34005589E-06  7.80482047E-02 -3.19661727E-02
 -5.00232236E-03 -1.48393932E-06  6.34107157E-02 -9.40855553E-03 -2.89057008E-02
 -2.34088646E-07  3.08135910E-04  5.87690087E-02  2.79104554E-02  2.16584580E-02
  1.60746327E-02  7.66753453E-02  1.42413858E-02 -3.77200392E-01 -2.46270998E-08
 -3.88496184E-01 -9.77263415E-02  4.16567645E-02  3.02830600E-05  7.28530317E-01
 -4.22234408E-02  1.50751583E-01 -6.64708095E-06  2.44628204E-01  3.69601338E-01
  5.17269317E-02 -1.23566747E-01  1.62009547E-06  3.77486549E-01  1.27807007E-01
  1.14759970E-02  4.19371178E-06  3.45998060E-01  6.85275982E-02  1.18116523E-01
  2.20679165E-06  3.39835800E-01 -6.34121717E-02  1.18580201E-01 -3.29313660E-06
  3.43766197E-01 -1.32053889E-01  6.96013014E-03 -6.25889233E-06  3.47995616E-01
 -7.79970402E-02 -1.11951841E-01 -2.52750564E-06  1.08251192E-01  9.47920810E-02
  9.56986021E-02  9.81523816E-02  9.85772275E-02  6.42298508E-02  1.23878203E-01
  7.22567562E-02 -1.58750946E-06  3.37523034E-02  4.67846450E-02  1.32014602E-03
 -4.56254623E-06 -2.21098985E-01  6.05635415E-02 -3.35426784E-02 -2.13948252E-06
 -9.08963955E-02  1.21203090E-01 -1.87416149E-01 -8.02230030E-02 -7.91199287E-06
  4.57752463E-01 -1.06250131E-01 -1.73318696E-02 -6.66098088E-06  1.77011300E-01
 -1.77222860E-01  9.02895037E-02 -7.88018302E-06 -2.32841035E-01 -1.26685661E-01
 -9.23559653E-02 -4.88191998E-06 -4.24515354E-01  3.25316501E-02 -1.18678557E-02
  2.27150571E-06 -2.73939067E-01 -1.04744778E-01  9.65193077E-02 -4.91491246E-06
  6.23887071E-02  8.94838310E-02 -9.42683888E-02 -1.76557011E-01 -1.11555826E-01
  2.49106894E-01  2.56440620E-01 -6.78058589E-02 -8.58535124E-06 -1.74389851E-01
  7.30086484E-02 -4.52805807E-03  2.21217425E-07 -1.32502348E-01  1.75685893E-01
  5.33513560E-02 -2.09746630E-05 -1.11106510E-01  4.36923108E-01  8.96990796E-02
  3.78249090E-02  2.42352755E-06  3.32441231E-02  1.10013021E-02  2.42312865E-01
 -9.77706719E-07 -4.04409947E-01 -1.09553377E-01  6.02248931E-02 -4.79014171E-06
 -4.26029163E-01  9.67231241E-02  3.90496779E-02  4.21704754E-06 -3.57338816E-02
  9.70517158E-03  2.25489365E-01 -4.29060492E-07  3.90228877E-01 -1.17355079E-01
  6.32987803E-02 -4.94116281E-06  1.90345653E-01 -1.76249631E-01 -1.87917542E-01
 -1.59570733E-02  1.72100257E-01 -7.01876834E-03  2.95065488E-02 -4.98583398E-04
 -3.94829119E-06 -7.05329072E-02  6.48683938E-03  1.75635889E-02  2.20595844E-06
  6.49699544E-02 -4.05323255E-02 -4.08151925E-03  4.45411124E-06  3.52210201E-02
 -2.56630748E-01 -3.44422574E-02 -1.12134942E-02 -6.70541404E-07  3.98081446E-02
 -2.97155541E-01 -2.72580719E-02 -1.36443252E-05 -2.37678810E-01 -1.01357248E-01
  2.66244430E-02 -3.87024715E-06 -4.83275036E-02  2.22405409E-01  1.09230740E-01
  9.03830058E-06  3.75192147E-01  9.58707374E-02  3.53200068E-02  2.91462654E-06
  5.15729039E-02  2.29739628E-01 -1.16939409E-01  9.84780190E-06 -1.11209898E-01
 -8.69444712E-02 -1.64861100E-02  2.21160601E-01  3.77708931E-02  3.57487263E-01
  1.41956925E-01 -1.36035374E-01 -9.28135520E-06 -2.28393020E-01  9.20343405E-02
 -1.01442081E-01 -1.58090628E-05 -1.53001722E-01  2.96524770E-01  1.96303865E-01
 -5.36300332E-05 -1.81340958E-01 -2.30544969E-01  2.65991473E-01  3.15195318E-02
  1.17337616E-05 -8.30650297E-02  2.33330926E-02 -3.47778222E-01  4.03724359E-06
  3.24255758E-01 -1.64142602E-01 -4.56924108E-02 -6.48479920E-06 -2.70788286E-01
 -2.42697223E-01 -1.82187856E-02 -9.90273968E-06 -8.58151610E-02 -1.99270393E-02
  3.31082122E-01 -2.13224380E-06  3.52370948E-01  1.33863503E-01  6.24814314E-02
  5.25022979E-06 -1.57207397E-01  2.16643976E-01 -1.77309095E-01 -5.78189135E-02
  2.29523221E-01 -1.06495668E-02 -9.19833986E-02 -7.69751512E-02  8.43070212E-06
  9.55779482E-02 -6.82458948E-02 -2.09843726E-02  6.41926388E-06 -5.04750487E-02
  1.30711799E-01  5.36220521E-02 -2.16621102E-05 -7.91193130E-02 -1.68283270E-01
 -1.49922038E-01 -2.55477440E-01 -4.83298514E-06  2.96032851E-01  1.17541562E-01
 -7.09774307E-02  4.90245489E-06  1.55071753E-02 -1.97580764E-01  2.41610303E-01
 -9.39363839E-06 -2.68592990E-01  4.37366951E-02  2.12635906E-01  1.57157212E-06
  2.14172673E-01  7.65624710E-02  9.20119471E-02  2.66339115E-06 -1.29803522E-01
  1.69883589E-01 -2.21707656E-01  8.18500262E-06 -1.63644181E-01 -4.98118453E-02
 -2.21640843E-01  1.39732294E-01 -1.16563178E-01 -1.90341649E-01  1.16751568E-01
  1.36176400E-01  7.29789990E-06  1.68858121E-01 -2.25004279E-02  1.52036649E-01
  2.74886486E-05  1.00552331E-01 -2.66207222E-01 -2.53239318E-01  6.95683044E-05
  1.68277346E-01  2.37605621E-02  1.26001907E-01 -2.01413545E-01  7.45489153E-06
 -2.88883093E-02  2.79669547E-01 -3.95977579E-02  1.80166561E-05 -1.00570959E-01
  8.70788203E-02  2.61775700E-01  4.89248110E-06 -3.62643024E-02 -2.82090508E-02
  2.50729966E-01 -4.38901342E-07 -2.76982057E-02 -2.40295379E-01 -7.51729637E-02
 -8.36963774E-06 -9.38489944E-02 -2.15535977E-01 -2.11579460E-01 -6.29352392E-06
 -1.41233444E-01 -2.12918187E-01 -1.66127047E-01 -1.65722820E-01 -2.30241915E-01
 -4.24785449E-02 -2.81146232E-01 -2.10786266E-01  1.52077224E-05  7.19329149E-02
 -2.23184678E-01 -8.33464247E-02  1.90098500E-05 -6.31400731E-02  2.60352290E-01
  2.90156828E-01 -8.09924174E-05 -1.74522478E-01  1.28784445E-01 -6.62865340E-02
  1.40853334E-01  3.69567102E-06  1.36170053E-02 -3.06640179E-03 -4.86739201E-02
  1.81941514E-05  6.12995075E-03 -1.81873773E-01 -5.54254181E-02  6.19691554E-07
 -2.75815338E-02  1.68560384E-01 -4.53444057E-02  1.05719671E-05  8.24350025E-02
  1.91403341E-01 -1.08067854E-01  1.00913945E-05 -7.68750583E-02 -3.64651811E-02
  7.99883273E-02  1.12433302E-06  1.62048262E-01  1.10816746E-01  6.28220684E-02
  1.67800654E-01 -5.98973796E-03 -1.74820765E-01  5.87361877E-02 -1.89492036E-01
  5.54512000E-05  4.11616304E-01 -2.39611994E-01  3.55073845E-01  1.37819410E-04
  2.12475065E-01  4.60497826E-01 -1.00106421E-01 -3.16080619E-05 -2.44354950E-01
  1.92445017E-01 -1.39429802E-01  1.64159581E-01 -2.66654699E-05 -7.41406509E-02
  2.01215064E-01 -4.44224522E-02 -3.13100641E-05  1.86473130E-01 -1.77214751E-01
 -1.00313588E-01 -2.82573577E-05 -1.70915379E-01  3.17320530E-03  4.45858768E-02
 -9.93521223E-06  1.65271616E-01  3.40340309E-01 -3.88407381E-02  7.28335462E-06
 -1.76075656E-01 -3.46556367E-02 -1.25221442E-02 -1.08271875E-05  2.32416579E-01
  2.03543366E-01 -1.11668683E-01  3.17076935E-01 -1.08229464E-01 -3.26098059E-02
 -3.11854415E-01 -4.49633568E-02 -9.89409506E-05 -1.50389704E-01 -1.18543495E-01
 -2.75364510E-01 -1.43374292E-04 -2.01306380E-01 -1.72484514E-01  2.73927593E-01
 -9.70534182E-05  7.64135789E-02  2.14281323E-05 -1.37355447E-05  2.53326316E-05
  1.24129563E-01 -9.21393494E-06  2.43308337E-05 -1.75730606E-05  2.51329956E-01
  2.15698349E-05 -2.60183344E-05  1.42407962E-06  1.25093616E-01 -1.74035785E-05
  2.83167499E-06 -1.67623917E-06  6.72180982E-02  1.47946267E-05  5.32615619E-05
 -1.31478764E-05  4.77797486E-02 -1.92521663E-05 -8.65032314E-06  1.88659019E-05
  6.68094312E-02  2.63331010E-05  1.28143201E-05 -6.14545133E-06  4.61862169E-05
 -1.48877497E-06 -4.96079157E-05 -2.00009026E-05 -3.03280871E-05  5.60936218E-01
 -6.79189387E-05  5.42366929E-05 -1.56222100E-04  5.89670402E-01 -1.00478257E-04
 -3.30967829E-05  1.46542516E-04  4.81820827E-01  4.90839965E-05 -6.65463249E-02
  2.41491542E-01  2.00939603E-02 -3.98586374E-06  1.67597738E-01  3.49541502E-02
 -3.29207238E-01 -2.31808815E-05 -6.50191373E-02 -2.37188131E-01  3.34730509E-01
 -2.53751918E-05  7.51485917E-02  3.52563539E-01 -4.85134958E-02  6.58163556E-06
 -9.77801802E-02  9.50084837E-02 -3.10911474E-01 -7.78420380E-07  6.80588565E-02
 -1.30942663E-01  3.77718186E-01 -1.62057065E-05 -1.02329998E-01 -1.47034163E-01
  1.83006525E-01  2.46496639E-02  2.08083902E-01  1.62727381E-03 -1.34134902E-02
 -3.61402363E-02 -4.12744553E-05  2.78524736E-02 -1.14340680E-01 -3.52639678E-02
 -3.11955386E-05 -1.34606919E-01 -2.14998760E-01  9.42049192E-02 -6.54642904E-06
  1.23848952E-01  3.08068937E-02  2.37626623E-01  3.07484479E-01  1.50645518E-05
 -1.69544149E-01 -1.89094136E-01 -2.38508023E-01  1.21278808E-06  6.18852534E-02
 -1.91708161E-01 -6.70664997E-02 -1.87683203E-06 -5.29233104E-02  1.04192484E-01
  3.81857275E-01  8.20779531E-06  9.87220702E-02 -2.22811408E-01 -2.39690850E-01
 -4.49342713E-06 -4.53974961E-02 -3.12746570E-01 -8.98344561E-02 -7.23756855E-06
  1.30958900E-01  1.47969969E-01 -2.31219438E-01 -1.00011318E-01 -1.94984105E-01
  5.62244800E-02  1.14090307E-01  1.29416792E-01  9.15317877E-06 -7.85482659E-02
  2.44922309E-01 -1.40971682E-02 -3.02654336E-05  7.01511189E-02  1.91011998E-03
 -2.28806190E-01  5.97524740E-05  1.50363222E-02 -4.85299822E-02 -2.67084440E-01
  3.35738945E-01 -1.63337424E-05 -5.91093939E-03 -3.36395958E-02 -1.02407624E-01
 -7.09081214E-06  4.61760350E-02  2.89010469E-01  2.78045338E-01  8.08797196E-06
  5.91548108E-02 -2.66008583E-01  3.26319017E-01 -1.43970082E-05  5.18214499E-03
 -3.31088135E-02 -9.44077230E-02 -3.71225828E-06 -5.56333978E-02  2.85287634E-01
  2.69229213E-01  6.05512084E-06  2.78458250E-01 -2.57558159E-01 -2.66491286E-01
 -1.87668874E-02  2.44795970E-01 -8.01601059E-04  2.46522435E-02 -3.74398598E-02
 -5.77034313E-06  4.09934625E-02 -1.72008974E-02  8.74188920E-02  1.69746517E-05
 -7.93972097E-03 -5.96491436E-03  6.57017481E-02 -1.75135341E-05 -2.34559565E-03
 -2.27385150E-03 -6.62579905E-02  1.27270815E-01 -8.88284777E-05  3.03791669E-02
 -2.79712950E-01  1.51304669E-02 -1.16947043E-04 -2.77359820E-02 -8.95991733E-02
 -1.63010694E-01 -9.07998441E-05  2.39763247E-02  6.95155217E-02  1.53630178E-02
 -7.87294250E-05  3.14929330E-02 -2.68058199E-01  8.54521684E-02 -8.86946325E-05
  3.33216772E-02  4.13135336E-02 -1.94051932E-01 -7.73492075E-05  1.03633146E-01
  1.03189371E-01  2.82073476E-02 -1.91490771E-01 -8.76056221E-02  4.62902939E-02
  1.49920235E-01 -2.06965406E-01 -2.21212791E-05  2.05023231E-01 -3.33909898E-01
  3.10986423E-01  1.46275903E-04 -2.43334454E-01 -3.33038588E-01  3.74474031E-01
 -3.97369922E-06  2.09283479E-01 -3.24869829E-06 -4.44032331E-05  3.05449734E-05