 Entering Link 1 = C:\G09W\l1.exe PID=     10784.
  
 Copyright (c) 1988,1990,1992,1993,1995,1998,2003,2009,2013,
            Gaussian, Inc.  All Rights Reserved.
  
 This is part of the Gaussian(R) 09 program.  It is based on
 the Gaussian(R) 03 system (copyright 2003, Gaussian, Inc.),
 the Gaussian(R) 98 system (copyright 1998, Gaussian, Inc.),
 the Gaussian(R) 94 system (copyright 1995, Gaussian, Inc.),
 the Gaussian 92(TM) system (copyright 1992, Gaussian, Inc.),
 the Gaussian 90(TM) system (copyright 1990, Gaussian, Inc.),
 the Gaussian 88(TM) system (copyright 1988, Gaussian, Inc.),
 the Gaussian 86(TM) system (copyright 1986, Carnegie Mellon
 University), and the Gaussian 82(TM) system (copyright 1983,
 Carnegie Mellon University). Gaussian is a federally registered
 trademark of Gaussian, Inc.
  
 This software contains proprietary and confidential information,
 including trade secrets, belonging to Gaussian, Inc.
  
 This software is provided under written license and may be
 used, copied, transmitted, or stored only in accord with that
 written license.
  
 The following legend is applicable only to US Government
 contracts under FAR:
  
                    RESTRICTED RIGHTS LEGEND
  
 Use, reproduction and disclosure by the US Government is
 subject to restrictions as set forth in subparagraphs (a)
 and (c) of the Commercial Computer Software - Restricted
 Rights clause in FAR 52.227-19.
  
 Gaussian, Inc.
 340 Quinnipiac St., Bldg. 40, Wallingford CT 06492
  
  
 ---------------------------------------------------------------
 Warning -- This program may not be used in any manner that
 competes with the business of Gaussian, Inc. or will provide
 assistance to any competitor of Gaussian, Inc.  The licensee
 of this program is prohibited from giving any competitor of
 Gaussian, Inc. access to this program.  By using this program,
 the user acknowledges that Gaussian, Inc. is engaged in the
 business of creating and licensing software in the field of
 computational chemistry and represents and warrants to the
 licensee that it is not a competitor of Gaussian, Inc. and that
 it will not use this program in any manner prohibited above.
 ---------------------------------------------------------------
  

 Cite this work as:
 Gaussian 09, Revision D.01,
 M. J. Frisch, G. W. Trucks, H. B. Schlegel, G. E. Scuseria, 
 M. A. Robb, J. R. Cheeseman, G. Scalmani, V. Barone, B. Mennucci, 
 G. A. Petersson, H. Nakatsuji, M. Caricato, X. Li, H. P. Hratchian, 
 A. F. Izmaylov, J. Bloino, G. Zheng, J. L. Sonnenberg, M. Hada, 
 M. Ehara, K. Toyota, R. Fukuda, J. Hasegawa, M. Ishida, T. Nakajima, 
 Y. Honda, O. Kitao, H. Nakai, T. Vreven, J. A. Montgomery, Jr., 
 J. E. Peralta, F. Ogliaro, M. Bearpark, J. J. Heyd, E. Brothers, 
 K. N. Kudin, V. N. Staroverov, T. Keith, R. Kobayashi, J. Normand, 
 K. Raghavachari, A. Rendell, J. C. Burant, S. S. Iyengar, J. Tomasi, 
 M. Cossi, N. Rega, J. M. Millam, M. Klene, J. E. Knox, J. B. Cross, 
 V. Bakken, C. Adamo, J. Jaramillo, R. Gomperts, R. E. Stratmann, 
 O. Yazyev, A. J. Austin, R. Cammi, C. Pomelli, J. W. Ochterski, 
 R. L. Martin, K. Morokuma, V. G. Zakrzewski, G. A. Voth, 
 P. Salvador, J. J. Dannenberg, S. Dapprich, A. D. Daniels, 
 O. Farkas, J. B. Foresman, J. V. Ortiz, J. Cioslowski, 
 and D. J. Fox, Gaussian, Inc., Wallingford CT, 2013.
 
 ******************************************
 Gaussian 09:  IA32W-G09RevD.01 24-Apr-2013
                18-Mar-2022 
 ******************************************
 %nprocshared=4
 Will use up to    4 processors via shared memory.
 %mem=1GB
 %chk=D:\mindmap\gaussian\calculate\opt_freq\bencooh\3f.chk
 --------------
 # opt freq pm6
 --------------
 1/14=-1,18=20,19=15,26=1,38=1/1,3;
 2/9=110,12=2,17=6,18=5,40=1/2;
 3/5=2,16=1,25=1,41=3900000,71=1/1,2,3;
 4/35=1/1;
 5/5=2,35=1,38=5/2;
 6/7=2,8=2,9=2,10=2,28=1/1;
 7//1,2,3,16;
 1/14=-1,18=20,19=15,26=1/3(2);
 2/9=110/2;
 99//99;
 2/9=110/2;
 3/5=2,16=1,25=1,41=3900000,71=1,135=20/1,2,3;
 4/5=5,16=3,35=1/1;
 5/5=2,35=1,38=5/2;
 7//1,2,3,16;
 1/14=-1,18=20,19=15,26=1/3(-5);
 2/9=110/2;
 6/7=2,8=2,9=2,10=2,19=2,28=1/1;
 99/9=1/99;
 ------------
 opt freq(GC)
 ------------
 Symbolic Z-matrix:
 Charge =  0 Multiplicity = 1
 C                    -2.51963  -1.01958  -0.85514 
 C                    -1.43138  -1.19545   0. 
 C                    -1.04159  -0.16406   0.85412 
 C                    -1.73943   1.04434   0.8525 
 C                    -2.82711   1.22027  -0.0028 
 C                    -3.21751   0.18811  -0.85641 
 H                    -2.82706  -1.83302  -1.52814 
 H                    -0.18422  -0.30284   1.52862 
 H                    -1.43187   1.85743   1.52598 
 H                    -3.37729   2.17252  -0.00432 
 H                    -4.07513   0.32697  -1.53045 
 C                    -0.66183  -2.52939   0.00184 
 O                    -1.01001  -3.4627   -0.7671 
 O                     0.45224  -2.70808   0.88037 
 H                     0.81874  -3.58696   0.75846 
 

 GradGradGradGradGradGradGradGradGradGradGradGradGradGradGradGradGradGrad
 Berny optimization.
 Initialization pass.
                           ----------------------------
                           !    Initial Parameters    !
                           ! (Angstroms and Degrees)  !
 --------------------------                            --------------------------
 ! Name  Definition              Value          Derivative Info.                !
 --------------------------------------------------------------------------------
 ! R1    R(1,2)                  1.3952         estimate D2E/DX2                !
 ! R2    R(1,6)                  1.3948         estimate D2E/DX2                !
 ! R3    R(1,7)                  1.0996         estimate D2E/DX2                !
 ! R4    R(2,3)                  1.3947         estimate D2E/DX2                !
 ! R5    R(2,12)                 1.54           estimate D2E/DX2                !
 ! R6    R(3,4)                  1.3954         estimate D2E/DX2                !
 ! R7    R(3,8)                  1.0997         estimate D2E/DX2                !
 ! R8    R(4,5)                  1.3948         estimate D2E/DX2                !
 ! R9    R(4,9)                  1.0997         estimate D2E/DX2                !
 ! R10   R(5,6)                  1.3951         estimate D2E/DX2                !
 ! R11   R(5,10)                 1.0998         estimate D2E/DX2                !
 ! R12   R(6,11)                 1.0996         estimate D2E/DX2                !
 ! R13   R(12,13)                1.2584         estimate D2E/DX2                !
 ! R14   R(12,14)                1.43           estimate D2E/DX2                !
 ! R15   R(14,15)                0.96           estimate D2E/DX2                !
 ! A1    A(2,1,6)              119.9985         estimate D2E/DX2                !
 ! A2    A(2,1,7)              119.9972         estimate D2E/DX2                !
 ! A3    A(6,1,7)              120.0043         estimate D2E/DX2                !
 ! A4    A(1,2,3)              120.0086         estimate D2E/DX2                !
 ! A5    A(1,2,12)             119.9808         estimate D2E/DX2                !
 ! A6    A(3,2,12)             120.0105         estimate D2E/DX2                !
 ! A7    A(2,3,4)              119.9942         estimate D2E/DX2                !
 ! A8    A(2,3,8)              120.0128         estimate D2E/DX2                !
 ! A9    A(4,3,8)              119.993          estimate D2E/DX2                !
 ! A10   A(3,4,5)              119.994          estimate D2E/DX2                !
 ! A11   A(3,4,9)              119.9811         estimate D2E/DX2                !
 ! A12   A(5,4,9)              120.0249         estimate D2E/DX2                !
 ! A13   A(4,5,6)              120.0047         estimate D2E/DX2                !
 ! A14   A(4,5,10)             120.0113         estimate D2E/DX2                !
 ! A15   A(6,5,10)             119.984          estimate D2E/DX2                !
 ! A16   A(1,6,5)              120.0            estimate D2E/DX2                !
 ! A17   A(1,6,11)             120.008          estimate D2E/DX2                !
 ! A18   A(5,6,11)             119.992          estimate D2E/DX2                !
 ! A19   A(2,12,13)            120.2269         estimate D2E/DX2                !
 ! A20   A(2,12,14)            119.8865         estimate D2E/DX2                !
 ! A21   A(13,12,14)           119.8865         estimate D2E/DX2                !
 ! A22   A(12,14,15)           109.5            estimate D2E/DX2                !
 ! D1    D(6,1,2,3)              0.0323         estimate D2E/DX2                !
 ! D2    D(6,1,2,12)           179.9532         estimate D2E/DX2                !
 ! D3    D(7,1,2,3)           -179.9729         estimate D2E/DX2                !
 ! D4    D(7,1,2,12)            -0.052          estimate D2E/DX2                !
 ! D5    D(2,1,6,5)              0.0149         estimate D2E/DX2                !
 ! D6    D(2,1,6,11)           179.9892         estimate D2E/DX2                !
 ! D7    D(7,1,6,5)           -179.9798         estimate D2E/DX2                !
 ! D8    D(7,1,6,11)            -0.0055         estimate D2E/DX2                !
 ! D9    D(1,2,3,4)             -0.0568         estimate D2E/DX2                !
 ! D10   D(1,2,3,8)            179.9619         estimate D2E/DX2                !
 ! D11   D(12,2,3,4)          -179.9777         estimate D2E/DX2                !
 ! D12   D(12,2,3,8)             0.041          estimate D2E/DX2                !
 ! D13   D(1,2,12,13)            0.0791         estimate D2E/DX2                !
 ! D14   D(1,2,12,14)         -179.9209         estimate D2E/DX2                !
 ! D15   D(3,2,12,13)          180.0            estimate D2E/DX2                !
 ! D16   D(3,2,12,14)            0.0            estimate D2E/DX2                !
 ! D17   D(2,3,4,5)              0.0341         estimate D2E/DX2                !
 ! D18   D(2,3,4,9)           -179.9964         estimate D2E/DX2                !
 ! D19   D(8,3,4,5)           -179.9846         estimate D2E/DX2                !
 ! D20   D(8,3,4,9)             -0.0151         estimate D2E/DX2                !
 ! D21   D(3,4,5,6)              0.0131         estimate D2E/DX2                !
 ! D22   D(3,4,5,10)          -179.9995         estimate D2E/DX2                !
 ! D23   D(9,4,5,6)           -179.9563         estimate D2E/DX2                !
 ! D24   D(9,4,5,10)             0.0311         estimate D2E/DX2                !
 ! D25   D(4,5,6,1)             -0.0376         estimate D2E/DX2                !
 ! D26   D(4,5,6,11)           179.9881         estimate D2E/DX2                !
 ! D27   D(10,5,6,1)           179.975          estimate D2E/DX2                !
 ! D28   D(10,5,6,11)            0.0007         estimate D2E/DX2                !
 ! D29   D(2,12,14,15)        -179.9538         estimate D2E/DX2                !
 ! D30   D(13,12,14,15)          0.0462         estimate D2E/DX2                !
 --------------------------------------------------------------------------------
 Trust Radius=3.00D-01 FncErr=1.00D-07 GrdErr=1.00D-07
 Number of steps in this run=     77 maximum allowed number of steps=    100.
 GradGradGradGradGradGradGradGradGradGradGradGradGradGradGradGradGradGrad

                          Input orientation:                          
 ---------------------------------------------------------------------
 Center     Atomic      Atomic             Coordinates (Angstroms)
 Number     Number       Type             X           Y           Z
 ---------------------------------------------------------------------
      1          6           0       -2.519629   -1.019575   -0.855135
      2          6           0       -1.431382   -1.195454    0.000000
      3          6           0       -1.041587   -0.164062    0.854115
      4          6           0       -1.739428    1.044339    0.852496
      5          6           0       -2.827110    1.220273   -0.002800
      6          6           0       -3.217505    0.188115   -0.856411
      7          1           0       -2.827062   -1.833023   -1.528136
      8          1           0       -0.184218   -0.302841    1.528619
      9          1           0       -1.431868    1.857432    1.525982
     10          1           0       -3.377289    2.172520   -0.004317
     11          1           0       -4.075127    0.326968   -1.530453
     12          6           0       -0.661829   -2.529390    0.001842
     13          8           0       -1.010015   -3.462696   -0.767104
     14          8           0        0.452244   -2.708083    0.880369
     15          1           0        0.818737   -3.586958    0.758461
 ---------------------------------------------------------------------
                    Distance matrix (angstroms):
                    1          2          3          4          5
     1  C    0.000000
     2  C    1.395160   0.000000
     3  C    2.416205   1.394712   0.000000
     4  C    2.790065   2.416260   1.395427   0.000000
     5  C    2.416183   2.789946   2.416356   1.394825   0.000000
     6  C    1.394829   2.416183   2.790080   2.416236   1.395138
     7  H    1.099610   2.165553   3.412986   3.889675   3.413102
     8  H    3.413229   2.165375   1.099680   2.165806   3.413209
     9  H    3.889745   3.413024   2.165678   1.099680   2.165606
    10  H    3.413055   3.889707   3.413506   2.165528   1.099761
    11  H    2.165365   3.413128   3.889684   3.412999   2.165471
    12  C    2.542709   1.540000   2.542708   3.828364   4.329946
    13  O    2.873243   2.430306   3.675641   4.844431   5.080964
    14  O    3.833414   2.571214   2.950299   4.345673   5.192892
    15  H    4.509971   3.370102   3.896944   5.291688   6.081216
                    6          7          8          9         10
     6  C    0.000000
     7  H    2.165331   0.000000
     8  H    3.889760   4.320860   0.000000
     9  H    3.413344   4.989355   2.494678   0.000000
    10  H    2.165516   4.320781   4.321228   2.495147   0.000000
    11  H    1.099604   2.494641   4.989364   4.320988   2.494420
    12  C    3.827912   2.741166   2.741656   4.707459   5.429707
    13  O    4.267249   2.556690   3.992113   5.808611   6.159666
    14  O    4.987126   4.161787   2.571089   4.981026   6.266440
    15  H    5.757624   4.647221   3.519159   5.941018   7.166593
                   11         12         13         14         15
    11  H    0.000000
    12  C    4.707155   0.000000
    13  O    4.933474   1.258400   0.000000
    14  O    5.959923   1.430000   2.328477   0.000000
    15  H    6.671420   1.970533   2.384769   0.960000   0.000000
 Stoichiometry    C7H6O2
 Framework group  C1[X(C7H6O2)]
 Deg. of freedom    39
 Full point group                 C1      NOp   1
 Largest Abelian subgroup         C1      NOp   1
 Largest concise Abelian subgroup C1      NOp   1
                         Standard orientation:                         
 ---------------------------------------------------------------------
 Center     Atomic      Atomic             Coordinates (Angstroms)
 Number     Number       Type             X           Y           Z
 ---------------------------------------------------------------------
      1          6           0        0.568746    1.219012    0.000106
      2          6           0       -0.183215    0.043842   -0.000667
      3          6           0        0.458139   -1.194660   -0.000264
      4          6           0        1.852111   -1.258373   -0.000288
      5          6           0        2.603826   -0.083442    0.000005
      6          6           0        1.962122    1.155358    0.000598
      7          1           0        0.062899    2.195364    0.000238
      8          1           0       -0.134497   -2.120985   -0.000239
      9          1           0        2.357574   -2.235001   -0.000030
     10          1           0        3.702456   -0.133323   -0.000022
     11          1           0        2.554939    2.081477    0.001027
     12          6           0       -1.721588    0.114596   -0.000122
     13          8           0       -2.304476    1.229859   -0.000482
     14          8           0       -2.490344   -1.091187    0.000797
     15          1           0       -3.425665   -0.874911    0.000308
 ---------------------------------------------------------------------
 Rotational constants (GHZ):      3.7991396      1.1674383      0.8930216
 Standard basis: VSTO-6G (5D, 7F)
 There are    42 symmetry adapted cartesian basis functions of A   symmetry.
 There are    42 symmetry adapted basis functions of A   symmetry.
    42 basis functions,   252 primitive gaussians,    42 cartesian basis functions
    23 alpha electrons       23 beta electrons
       nuclear repulsion energy       236.5094632860 Hartrees.
 Integral buffers will be    262144 words long.
 Regular integral format.
 Two-electron integral symmetry is turned off.
 Do NDO integrals.
 One-electron integrals computed using PRISM.
 NBasis=    42 RedAO= F EigKep=  0.00D+00  NBF=    42
 NBsUse=    42 1.00D-04 EigRej=  0.00D+00 NBFU=    42
 Simple Huckel Guess.
 Overlap will be assumed to be unity.
 Keep J ints in memory in canonical form, NReq=894151.
 Requested convergence on RMS density matrix=1.00D-08 within 128 cycles.
 Requested convergence on MAX density matrix=1.00D-06.
 Requested convergence on             energy=1.00D-06.
 No special actions if energy rises.
 SCF Done:  E(RPM6) = -0.888583982529E-01 A.U. after   17 cycles
            NFock= 16  Conv=0.52D-08     -V/T= 0.9967

 **********************************************************************

            Population analysis using the SCF density.

 **********************************************************************

 Orbital symmetries:
       Occupied  (A) (A) (A) (A) (A) (A) (A) (A) (A) (A) (A) (A)
                 (A) (A) (A) (A) (A) (A) (A) (A) (A) (A) (A)
       Virtual   (A) (A) (A) (A) (A) (A) (A) (A) (A) (A) (A) (A)
                 (A) (A) (A) (A) (A) (A) (A)
 The electronic state is 1-A.
 Alpha  occ. eigenvalues --   -1.15411  -1.12082  -1.11153  -0.98715  -0.97192
 Alpha  occ. eigenvalues --   -0.85955  -0.80302  -0.76419  -0.67494  -0.65137
 Alpha  occ. eigenvalues --   -0.60263  -0.57886  -0.56981  -0.56436  -0.54050
 Alpha  occ. eigenvalues --   -0.51655  -0.50246  -0.47047  -0.45740  -0.44726
 Alpha  occ. eigenvalues --   -0.40864  -0.38009  -0.37525
 Alpha virt. eigenvalues --   -0.02887  -0.00522   0.02405   0.03827   0.08002
 Alpha virt. eigenvalues --    0.10714   0.13205   0.14631   0.15335   0.16203
 Alpha virt. eigenvalues --    0.16845   0.17301   0.18125   0.18526   0.19390
 Alpha virt. eigenvalues --    0.20443   0.20580   0.21060   0.21491
          Condensed to atoms (all electrons):
               1          2          3          4          5          6
     1  C    4.060924   0.000000   0.000000   0.000000   0.000000   0.000000
     2  C    0.000000   4.140707   0.000000   0.000000   0.000000   0.000000
     3  C    0.000000   0.000000   4.074238   0.000000   0.000000   0.000000
     4  C    0.000000   0.000000   0.000000   4.183583   0.000000   0.000000
     5  C    0.000000   0.000000   0.000000   0.000000   4.082802   0.000000
     6  C    0.000000   0.000000   0.000000   0.000000   0.000000   4.184565
     7  H    0.000000   0.000000   0.000000   0.000000   0.000000   0.000000
     8  H    0.000000   0.000000   0.000000   0.000000   0.000000   0.000000
     9  H    0.000000   0.000000   0.000000   0.000000   0.000000   0.000000
    10  H    0.000000   0.000000   0.000000   0.000000   0.000000   0.000000
    11  H    0.000000   0.000000   0.000000   0.000000   0.000000   0.000000
    12  C    0.000000   0.000000   0.000000   0.000000   0.000000   0.000000
    13  O    0.000000   0.000000   0.000000   0.000000   0.000000   0.000000
    14  O    0.000000   0.000000   0.000000   0.000000   0.000000   0.000000
    15  H    0.000000   0.000000   0.000000   0.000000   0.000000   0.000000
               7          8          9         10         11         12
     1  C    0.000000   0.000000   0.000000   0.000000   0.000000   0.000000
     2  C    0.000000   0.000000   0.000000   0.000000   0.000000   0.000000
     3  C    0.000000   0.000000   0.000000   0.000000   0.000000   0.000000
     4  C    0.000000   0.000000   0.000000   0.000000   0.000000   0.000000
     5  C    0.000000   0.000000   0.000000   0.000000   0.000000   0.000000
     6  C    0.000000   0.000000   0.000000   0.000000   0.000000   0.000000
     7  H    0.828286   0.000000   0.000000   0.000000   0.000000   0.000000
     8  H    0.000000   0.834335   0.000000   0.000000   0.000000   0.000000
     9  H    0.000000   0.000000   0.840730   0.000000   0.000000   0.000000
    10  H    0.000000   0.000000   0.000000   0.850336   0.000000   0.000000
    11  H    0.000000   0.000000   0.000000   0.000000   0.839288   0.000000
    12  C    0.000000   0.000000   0.000000   0.000000   0.000000   3.379950
    13  O    0.000000   0.000000   0.000000   0.000000   0.000000   0.000000
    14  O    0.000000   0.000000   0.000000   0.000000   0.000000   0.000000
    15  H    0.000000   0.000000   0.000000   0.000000   0.000000   0.000000
              13         14         15
     1  C    0.000000   0.000000   0.000000
     2  C    0.000000   0.000000   0.000000
     3  C    0.000000   0.000000   0.000000
     4  C    0.000000   0.000000   0.000000
     5  C    0.000000   0.000000   0.000000
     6  C    0.000000   0.000000   0.000000
     7  H    0.000000   0.000000   0.000000
     8  H    0.000000   0.000000   0.000000
     9  H    0.000000   0.000000   0.000000
    10  H    0.000000   0.000000   0.000000
    11  H    0.000000   0.000000   0.000000
    12  C    0.000000   0.000000   0.000000
    13  O    6.519616   0.000000   0.000000
    14  O    0.000000   6.512562   0.000000
    15  H    0.000000   0.000000   0.668076
 Mulliken charges:
               1
     1  C   -0.060924
     2  C   -0.140707
     3  C   -0.074238
     4  C   -0.183583
     5  C   -0.082802
     6  C   -0.184565
     7  H    0.171714
     8  H    0.165665
     9  H    0.159270
    10  H    0.149664
    11  H    0.160712
    12  C    0.620050
    13  O   -0.519616
    14  O   -0.512562
    15  H    0.331924
 Sum of Mulliken charges =   0.00000
 Mulliken charges with hydrogens summed into heavy atoms:
               1
     1  C    0.110789
     2  C   -0.140707
     3  C    0.091427
     4  C   -0.024313
     5  C    0.066863
     6  C   -0.023854
    12  C    0.620050
    13  O   -0.519616
    14  O   -0.180639
 Charge=              0.0000 electrons
 Dipole moment (field-independent basis, Debye):
    X=              2.3413    Y=             -1.3300    Z=              0.0004  Tot=              2.6926
 N-N= 2.365094632860D+02 E-N=-4.152724864557D+02  KE=-2.689835411011D+01
 Calling FoFJK, ICntrl=      2127 FMM=F ISym2X=0 I1Cent= 0 IOpClX= 0 NMat=1 NMatS=1 NMatT=0.
 ***** Axes restored to original set *****
 -------------------------------------------------------------------
 Center     Atomic                   Forces (Hartrees/Bohr)
 Number     Number              X              Y              Z
 -------------------------------------------------------------------
      1        6          -0.003679382   -0.008842987   -0.007636623
      2        6           0.031705550   -0.030814511    0.012306055
      3        6           0.007905353    0.002085659    0.007813856
      4        6           0.003385868    0.005052447    0.005514115
      5        6          -0.004338864    0.007164102   -0.000154119
      6        6          -0.005505731    0.000448685   -0.004628649
      7        1           0.001421238    0.000786064    0.001629177
      8        1          -0.002177407   -0.000263154   -0.002018639
      9        1          -0.001161986   -0.003859557   -0.002962527
     10        1           0.002254316   -0.003887063    0.000016221
     11        1           0.003882305   -0.001077435    0.002841426
     12        6          -0.023794329   -0.024426197   -0.032921884
     13        8           0.030579578    0.047475986    0.050292056
     14        8          -0.046928555    0.024752120   -0.028402124
     15        1           0.006452047   -0.014594162   -0.001688341
 -------------------------------------------------------------------
 Cartesian Forces:  Max     0.050292056 RMS     0.017951487

 GradGradGradGradGradGradGradGradGradGradGradGradGradGradGradGradGradGrad
 Berny optimization.
 FormGI is forming the generalized inverse of G from B-inverse, IUseBI=4.
 Internal  Forces:  Max     0.074403083 RMS     0.013296507
 Search for a local minimum.
 Step number   1 out of a maximum of   77
 All quantities printed in internal units (Hartrees-Bohrs-Radians)
 Mixed Optimization -- RFO/linear search
 Second derivative matrix not updated -- first step.
 ITU=  0
     Eigenvalues ---    0.00237   0.00588   0.01295   0.01565   0.02152
     Eigenvalues ---    0.02153   0.02154   0.02155   0.02155   0.02155
     Eigenvalues ---    0.02156   0.02157   0.16000   0.16000   0.16000
     Eigenvalues ---    0.16000   0.16000   0.16000   0.22000   0.22000
     Eigenvalues ---    0.23486   0.25000   0.25000   0.25000   0.28519
     Eigenvalues ---    0.33709   0.33718   0.33718   0.33725   0.33726
     Eigenvalues ---    0.40989   0.42107   0.42314   0.46412   0.46453
     Eigenvalues ---    0.46466   0.46497   0.55473   0.80209
 RFO step:  Lambda=-2.45669441D-02 EMin= 2.36824022D-03
 Linear search not attempted -- first point.
 Iteration  1 RMS(Cart)=  0.05635743 RMS(Int)=  0.00121178
 Iteration  2 RMS(Cart)=  0.00142204 RMS(Int)=  0.00000562
 Iteration  3 RMS(Cart)=  0.00000293 RMS(Int)=  0.00000531
 Iteration  4 RMS(Cart)=  0.00000000 RMS(Int)=  0.00000531
 Variable       Old X    -DE/DX   Delta X   Delta X   Delta X     New X
                                 (Linear)    (Quad)   (Total)
    R1        2.63647   0.00324   0.00000   0.00667   0.00667   2.64314
    R2        2.63584   0.00234   0.00000   0.00474   0.00474   2.64058
    R3        2.07796  -0.00198   0.00000  -0.00546  -0.00546   2.07250
    R4        2.63562   0.00577   0.00000   0.01188   0.01189   2.64752
    R5        2.91018  -0.04562   0.00000  -0.14726  -0.14726   2.76292
    R6        2.63697   0.00173   0.00000   0.00358   0.00358   2.64056
    R7        2.07809  -0.00290   0.00000  -0.00802  -0.00802   2.07007
    R8        2.63584   0.00560   0.00000   0.01139   0.01138   2.64722
    R9        2.07809  -0.00499   0.00000  -0.01380  -0.01380   2.06429
   R10        2.63643   0.00555   0.00000   0.01125   0.01124   2.64767
   R11        2.07825  -0.00449   0.00000  -0.01242  -0.01242   2.06582
   R12        2.07795  -0.00491   0.00000  -0.01356  -0.01356   2.06439
   R13        2.37803  -0.07440   0.00000  -0.09001  -0.09001   2.28803
   R14        2.70231  -0.05129   0.00000  -0.11805  -0.11805   2.58425
   R15        1.81414   0.01604   0.00000   0.02769   0.02769   1.84182
    A1        2.09437  -0.00337   0.00000  -0.01339  -0.01338   2.08098
    A2        2.09435   0.00046   0.00000   0.00006   0.00006   2.09441
    A3        2.09447   0.00291   0.00000   0.01333   0.01332   2.10779
    A4        2.09455   0.00515   0.00000   0.01937   0.01938   2.11393
    A5        2.09406  -0.00659   0.00000  -0.02431  -0.02432   2.06974
    A6        2.09458   0.00144   0.00000   0.00495   0.00494   2.09952
    A7        2.09429  -0.00297   0.00000  -0.01148  -0.01147   2.08283
    A8        2.09462   0.00078   0.00000   0.00192   0.00191   2.09653
    A9        2.09427   0.00219   0.00000   0.00956   0.00955   2.10383
   A10        2.09429  -0.00043   0.00000  -0.00137  -0.00138   2.09291
   A11        2.09407  -0.00010   0.00000  -0.00102  -0.00102   2.09305
   A12        2.09483   0.00053   0.00000   0.00239   0.00240   2.09722
   A13        2.09448   0.00136   0.00000   0.00567   0.00565   2.10013
   A14        2.09459  -0.00069   0.00000  -0.00290  -0.00290   2.09170
   A15        2.09411  -0.00067   0.00000  -0.00277  -0.00276   2.09136
   A16        2.09440   0.00027   0.00000   0.00121   0.00119   2.09559
   A17        2.09453  -0.00064   0.00000  -0.00336  -0.00336   2.09118
   A18        2.09426   0.00038   0.00000   0.00216   0.00216   2.09642
   A19        2.09836   0.02536   0.00000   0.09235   0.09235   2.19070
   A20        2.09241  -0.01858   0.00000  -0.06767  -0.06767   2.02474
   A21        2.09241  -0.00677   0.00000  -0.02467  -0.02467   2.06774
   A22        1.91114   0.00088   0.00000   0.00479   0.00479   1.91592
    D1        0.00056  -0.00001   0.00000  -0.00026  -0.00026   0.00031
    D2        3.14078   0.00002   0.00000   0.00042   0.00042   3.14120
    D3       -3.14112  -0.00001   0.00000  -0.00028  -0.00028  -3.14140
    D4       -0.00091   0.00002   0.00000   0.00040   0.00040  -0.00051
    D5        0.00026  -0.00001   0.00000  -0.00018  -0.00018   0.00008
    D6        3.14140   0.00001   0.00000   0.00013   0.00013   3.14154
    D7       -3.14124  -0.00001   0.00000  -0.00016  -0.00016  -3.14140
    D8       -0.00010   0.00001   0.00000   0.00016   0.00015   0.00006
    D9       -0.00099   0.00002   0.00000   0.00052   0.00052  -0.00047
   D10        3.14093   0.00001   0.00000   0.00031   0.00031   3.14124
   D11       -3.14120   0.00000   0.00000  -0.00014  -0.00015  -3.14135
   D12        0.00072  -0.00001   0.00000  -0.00035  -0.00035   0.00036
   D13        0.00138  -0.00002   0.00000  -0.00046  -0.00046   0.00092
   D14       -3.14021  -0.00002   0.00000  -0.00037  -0.00036  -3.14057
   D15        3.14159   0.00001   0.00000   0.00023   0.00023  -3.14136
   D16        0.00000   0.00002   0.00000   0.00033   0.00032   0.00032
   D17        0.00060  -0.00002   0.00000  -0.00034  -0.00034   0.00025
   D18       -3.14153   0.00000   0.00000  -0.00006  -0.00006  -3.14159
   D19       -3.14132  -0.00001   0.00000  -0.00014  -0.00014  -3.14146
   D20       -0.00026   0.00001   0.00000   0.00015   0.00015  -0.00011
   D21        0.00023  -0.00001   0.00000  -0.00011  -0.00010   0.00013
   D22       -3.14158   0.00000   0.00000   0.00010   0.00010  -3.14148
   D23       -3.14083  -0.00002   0.00000  -0.00039  -0.00039  -3.14122
   D24        0.00054  -0.00001   0.00000  -0.00018  -0.00018   0.00036
   D25       -0.00066   0.00002   0.00000   0.00036   0.00036  -0.00029
   D26        3.14138   0.00000   0.00000   0.00005   0.00005   3.14143
   D27        3.14116   0.00001   0.00000   0.00015   0.00015   3.14131
   D28        0.00001  -0.00001   0.00000  -0.00016  -0.00016  -0.00015
   D29       -3.14079  -0.00001   0.00000  -0.00033  -0.00033  -3.14112
   D30        0.00081  -0.00001   0.00000  -0.00024  -0.00024   0.00057
         Item               Value     Threshold  Converged?
 Maximum Force            0.074403     0.000450     NO 
 RMS     Force            0.013297     0.000300     NO 
 Maximum Displacement     0.204170     0.001800     NO 
 RMS     Displacement     0.056316     0.001200     NO 
 Predicted change in Energy=-1.303252D-02
 GradGradGradGradGradGradGradGradGradGradGradGradGradGradGradGradGradGrad

                          Input orientation:                          
 ---------------------------------------------------------------------
 Center     Atomic      Atomic             Coordinates (Angstroms)
 Number     Number       Type             X           Y           Z
 ---------------------------------------------------------------------
      1          6           0       -2.514182   -1.046023   -0.863522
      2          6           0       -1.424316   -1.215381   -0.003378
      3          6           0       -1.018183   -0.190524    0.861227
      4          6           0       -1.714907    1.020709    0.862120
      5          6           0       -2.807468    1.198841    0.003657
      6          6           0       -3.206362    0.167811   -0.857102
      7          1           0       -2.816420   -1.860684   -1.532682
      8          1           0       -0.162439   -0.340936    1.528350
      9          1           0       -1.406460    1.826271    1.532355
     10          1           0       -3.351664    2.146946    0.005219
     11          1           0       -4.058976    0.310429   -1.525017
     12          6           0       -0.710546   -2.491259   -0.021364
     13          8           0       -0.978929   -3.437508   -0.727445
     14          8           0        0.345110   -2.600041    0.841127
     15          1           0        0.752676   -3.481086    0.753983
 ---------------------------------------------------------------------
                    Distance matrix (angstroms):
                    1          2          3          4          5
     1  C    0.000000
     2  C    1.398691   0.000000
     3  C    2.438165   1.401006   0.000000
     4  C    2.808569   2.415290   1.397323   0.000000
     5  C    2.424341   2.782377   2.422251   1.400849   0.000000
     6  C    1.397335   2.412001   2.805207   2.430555   1.401087
     7  H    1.096720   2.166365   3.428395   3.905231   3.423610
     8  H    3.427667   2.168682   1.095434   2.169815   3.419325
     9  H    3.900942   3.407409   2.160702   1.092376   2.166428
    10  H    3.413376   3.875562   3.411986   2.163715   1.093186
    11  H    2.159612   3.403661   3.897632   3.420172   2.166193
    12  C    2.459886   1.462072   2.483342   3.758084   4.244353
    13  O    2.845122   2.379179   3.615014   4.789998   5.037240
    14  O    3.673738   2.400280   2.768527   4.165806   5.007155
    15  H    4.383859   3.232075   3.738347   5.134862   5.927843
                    6          7          8          9         10
     6  C    0.000000
     7  H    2.173305   0.000000
     8  H    3.900599   4.327028   0.000000
     9  H    3.420474   4.997607   2.498878   0.000000
    10  H    2.163720   4.325820   4.322111   2.493752   0.000000
    11  H    1.092429   2.501546   4.993028   4.322169   2.492931
    12  C    3.741417   2.667660   2.706644   4.641056   5.337523
    13  O    4.239881   2.551697   3.917145   5.744288   6.111693
    14  O    4.812269   4.022050   2.415250   4.810200   6.074435
    15  H    5.619966   4.537950   3.361193   5.782366   7.005783
                   11         12         13         14         15
    11  H    0.000000
    12  C    4.617619   0.000000
    13  O    4.916284   1.210771   0.000000
    14  O    5.784933   1.367529   2.216945   0.000000
    15  H    6.536162   1.929233   2.279251   0.974651   0.000000
 Stoichiometry    C7H6O2
 Framework group  C1[X(C7H6O2)]
 Deg. of freedom    39
 Full point group                 C1      NOp   1
 Largest Abelian subgroup         C1      NOp   1
 Largest concise Abelian subgroup C1      NOp   1
                         Standard orientation:                         
 ---------------------------------------------------------------------
 Center     Atomic      Atomic             Coordinates (Angstroms)
 Number     Number       Type             X           Y           Z
 ---------------------------------------------------------------------
      1          6           0        0.522469    1.236700    0.000123
      2          6           0       -0.212643    0.046764   -0.000369
      3          6           0        0.427191   -1.199603   -0.000249
      4          6           0        1.823518   -1.252342   -0.000205
      5          6           0        2.567474   -0.065368    0.000028
      6          6           0        1.918500    1.176356    0.000370
      7          1           0        0.002651    2.202405    0.000204
      8          1           0       -0.164662   -2.121387   -0.000307
      9          1           0        2.332309   -2.218994   -0.000119
     10          1           0        3.659830   -0.107956   -0.000045
     11          1           0        2.502094    2.099838    0.000701
     12          6           0       -1.672549    0.126323   -0.000115
     13          8           0       -2.321290    1.148625   -0.000414
     14          8           0       -2.338219   -1.068256    0.000634
     15          1           0       -3.299909   -0.909842    0.000309
 ---------------------------------------------------------------------
 Rotational constants (GHZ):      3.8783281      1.2251384      0.9310317
 Standard basis: VSTO-6G (5D, 7F)
 There are    42 symmetry adapted cartesian basis functions of A   symmetry.
 There are    42 symmetry adapted basis functions of A   symmetry.
    42 basis functions,   252 primitive gaussians,    42 cartesian basis functions
    23 alpha electrons       23 beta electrons
       nuclear repulsion energy       239.0479939411 Hartrees.
 Integral buffers will be    262144 words long.
 Regular integral format.
 Two-electron integral symmetry is turned off.
 Do NDO integrals.
 One-electron integrals computed using PRISM.
 NBasis=    42 RedAO= F EigKep=  0.00D+00  NBF=    42
 NBsUse=    42 1.00D-04 EigRej=  0.00D+00 NBFU=    42
 Initial guess from the checkpoint file:  "D:\mindmap\gaussian\calculate\opt_freq\bencooh\3f.chk"
 B after Tr=     0.000000    0.000000    0.000000
         Rot=    0.999981    0.000006   -0.000004   -0.006125 Ang=   0.70 deg.
 Overlap will be assumed to be unity.
 Keep J ints in memory in canonical form, NReq=894151.
 Requested convergence on RMS density matrix=1.00D-08 within 128 cycles.
 Requested convergence on MAX density matrix=1.00D-06.
 Requested convergence on             energy=1.00D-06.
 No special actions if energy rises.
 SCF Done:  E(RPM6) = -0.100834202021     A.U. after   15 cycles
            NFock= 14  Conv=0.80D-08     -V/T= 0.9963
 Calling FoFJK, ICntrl=      2127 FMM=F ISym2X=0 I1Cent= 0 IOpClX= 0 NMat=1 NMatS=1 NMatT=0.
 ***** Axes restored to original set *****
 -------------------------------------------------------------------
 Center     Atomic                   Forces (Hartrees/Bohr)
 Number     Number              X              Y              Z
 -------------------------------------------------------------------
      1        6          -0.005440174    0.002360579   -0.003562550
      2        6           0.004882994    0.007194647    0.007918276
      3        6          -0.000551195    0.005974549    0.002469757
      4        6           0.000003812    0.000630906    0.000342496
      5        6          -0.000301193   -0.000383680   -0.000448791
      6        6          -0.000816418    0.001272685   -0.000099042
      7        1           0.000569391    0.000792425    0.000894695
      8        1          -0.000935475   -0.000297156   -0.000960027
      9        1          -0.000649716   -0.001169792   -0.001160316
     10        1           0.000733062   -0.001305708   -0.000009453
     11        1           0.001262094   -0.000034064    0.001080050
     12        6          -0.008555833   -0.004504901   -0.009694303
     13        8           0.000416329   -0.010609883   -0.004949307
     14        8           0.000570248    0.010161916    0.005559559
     15        1           0.008812075   -0.010082523    0.002618958
 -------------------------------------------------------------------
 Cartesian Forces:  Max     0.010609883 RMS     0.004443907

 GradGradGradGradGradGradGradGradGradGradGradGradGradGradGradGradGradGrad
 Berny optimization.
 Using GEDIIS/GDIIS optimizer.
 FormGI is forming the generalized inverse of G from B-inverse, IUseBI=4.
 Internal  Forces:  Max     0.013806902 RMS     0.003967795
 Search for a local minimum.
 Step number   2 out of a maximum of   77
 All quantities printed in internal units (Hartrees-Bohrs-Radians)
 Mixed Optimization -- RFO/linear search
 Update second derivatives using D2CorX and points    1    2
 DE= -1.20D-02 DEPred=-1.30D-02 R= 9.19D-01
 TightC=F SS=  1.41D+00  RLast= 2.47D-01 DXNew= 5.0454D-01 7.4083D-01
 Trust test= 9.19D-01 RLast= 2.47D-01 DXMaxT set to 5.05D-01
 ITU=  1  0
 Use linear search instead of GDIIS.
     Eigenvalues ---    0.00237   0.00554   0.01295   0.01578   0.02152
     Eigenvalues ---    0.02153   0.02154   0.02155   0.02155   0.02155
     Eigenvalues ---    0.02156   0.02157   0.15635   0.16000   0.16000
     Eigenvalues ---    0.16000   0.16000   0.16013   0.21872   0.22000
     Eigenvalues ---    0.22009   0.23605   0.25000   0.25051   0.31844
     Eigenvalues ---    0.33554   0.33711   0.33718   0.33722   0.33728
     Eigenvalues ---    0.41803   0.42185   0.46101   0.46351   0.46441
     Eigenvalues ---    0.46469   0.47500   0.54745   0.87425
 RFO step:  Lambda=-2.60926542D-03 EMin= 2.36824023D-03
 Quartic linear search produced a step of -0.07463.
 Iteration  1 RMS(Cart)=  0.02694332 RMS(Int)=  0.00095641
 Iteration  2 RMS(Cart)=  0.00125018 RMS(Int)=  0.00000350
 Iteration  3 RMS(Cart)=  0.00000260 RMS(Int)=  0.00000308
 Iteration  4 RMS(Cart)=  0.00000000 RMS(Int)=  0.00000308
 Variable       Old X    -DE/DX   Delta X   Delta X   Delta X     New X
                                 (Linear)    (Quad)   (Total)
    R1        2.64314   0.00589  -0.00050   0.01355   0.01306   2.65620
    R2        2.64058  -0.00033  -0.00035   0.00030  -0.00005   2.64053
    R3        2.07250  -0.00129   0.00041  -0.00460  -0.00419   2.06831
    R4        2.64752   0.00421  -0.00089   0.01118   0.01029   2.65781
    R5        2.76292   0.01381   0.01099   0.01444   0.02543   2.78835
    R6        2.64056  -0.00065  -0.00027  -0.00063  -0.00090   2.63966
    R7        2.07007  -0.00127   0.00060  -0.00507  -0.00447   2.06560
    R8        2.64722  -0.00114  -0.00085  -0.00064  -0.00149   2.64573
    R9        2.06429  -0.00176   0.00103  -0.00753  -0.00650   2.05779
   R10        2.64767  -0.00204  -0.00084  -0.00242  -0.00326   2.64441
   R11        2.06582  -0.00150   0.00093  -0.00655  -0.00562   2.06020
   R12        2.06439  -0.00165   0.00101  -0.00719  -0.00618   2.05822
   R13        2.28803   0.01109   0.00672  -0.00402   0.00269   2.29072
   R14        2.58425   0.01239   0.00881   0.00474   0.01355   2.59780
   R15        1.84182   0.01256  -0.00207   0.02612   0.02405   1.86587
    A1        2.08098   0.00093   0.00100   0.00216   0.00316   2.08415
    A2        2.09441  -0.00077   0.00000  -0.00428  -0.00428   2.09012
    A3        2.10779  -0.00017  -0.00099   0.00212   0.00112   2.10892
    A4        2.11393  -0.00380  -0.00145  -0.00801  -0.00945   2.10448
    A5        2.06974   0.00034   0.00181  -0.00472  -0.00291   2.06683
    A6        2.09952   0.00346  -0.00037   0.01273   0.01236   2.11187
    A7        2.08283   0.00079   0.00086   0.00167   0.00253   2.08536
    A8        2.09653  -0.00092  -0.00014  -0.00469  -0.00484   2.09170
    A9        2.10383   0.00013  -0.00071   0.00302   0.00231   2.10613
   A10        2.09291   0.00083   0.00010   0.00156   0.00166   2.09457
   A11        2.09305  -0.00019   0.00008   0.00010   0.00018   2.09322
   A12        2.09722  -0.00064  -0.00018  -0.00166  -0.00184   2.09539
   A13        2.10013   0.00086  -0.00042   0.00207   0.00164   2.10177
   A14        2.09170  -0.00041   0.00022  -0.00096  -0.00074   2.09096
   A15        2.09136  -0.00044   0.00021  -0.00111  -0.00090   2.09046
   A16        2.09559   0.00039  -0.00009   0.00055   0.00046   2.09604
   A17        2.09118   0.00001   0.00025   0.00026   0.00052   2.09169
   A18        2.09642  -0.00040  -0.00016  -0.00081  -0.00097   2.09545
   A19        2.19070   0.01002  -0.00689   0.05579   0.04890   2.23960
   A20        2.02474  -0.01138   0.00505  -0.05566  -0.05061   1.97413
   A21        2.06774   0.00136   0.00184  -0.00013   0.00171   2.06945
   A22        1.91592   0.00980  -0.00036   0.05677   0.05641   1.97234
    D1        0.00031  -0.00001   0.00002  -0.00048  -0.00046  -0.00016
    D2        3.14120   0.00001  -0.00003   0.00065   0.00061  -3.14138
    D3       -3.14140  -0.00001   0.00002  -0.00043  -0.00041   3.14138
    D4       -0.00051   0.00001  -0.00003   0.00070   0.00067   0.00016
    D5        0.00008   0.00000   0.00001  -0.00013  -0.00012  -0.00004
    D6        3.14154   0.00000  -0.00001   0.00020   0.00019  -3.14146
    D7       -3.14140   0.00000   0.00001  -0.00018  -0.00017  -3.14157
    D8        0.00006   0.00000  -0.00001   0.00015   0.00014   0.00019
    D9       -0.00047   0.00001  -0.00004   0.00078   0.00074   0.00026
   D10        3.14124   0.00001  -0.00002   0.00054   0.00051  -3.14143
   D11       -3.14135   0.00000   0.00001  -0.00037  -0.00036   3.14147
   D12        0.00036  -0.00001   0.00003  -0.00061  -0.00059  -0.00022
   D13        0.00092  -0.00001   0.00003  -0.00079  -0.00076   0.00016
   D14       -3.14057  -0.00001   0.00003  -0.00101  -0.00099  -3.14157
   D15       -3.14136   0.00001  -0.00002   0.00032   0.00031  -3.14106
   D16        0.00032   0.00000  -0.00002   0.00010   0.00008   0.00040
   D17        0.00025  -0.00001   0.00003  -0.00045  -0.00043  -0.00018
   D18       -3.14159   0.00000   0.00000  -0.00008  -0.00008   3.14152
   D19       -3.14146   0.00000   0.00001  -0.00021  -0.00020   3.14152
   D20       -0.00011   0.00000  -0.00001   0.00016   0.00015   0.00003
   D21        0.00013   0.00000   0.00001  -0.00015  -0.00014  -0.00001
   D22       -3.14148   0.00000  -0.00001   0.00007   0.00006  -3.14142
   D23       -3.14122  -0.00001   0.00003  -0.00052  -0.00049   3.14147
   D24        0.00036  -0.00001   0.00001  -0.00031  -0.00029   0.00007
   D25       -0.00029   0.00001  -0.00003   0.00044   0.00042   0.00012
   D26        3.14143   0.00000   0.00000   0.00011   0.00011   3.14154
   D27        3.14131   0.00000  -0.00001   0.00023   0.00022   3.14153
   D28       -0.00015   0.00000   0.00001  -0.00010  -0.00009  -0.00024
   D29       -3.14112  -0.00001   0.00002  -0.00057  -0.00055   3.14152
   D30        0.00057  -0.00001   0.00002  -0.00077  -0.00075  -0.00019
         Item               Value     Threshold  Converged?
 Maximum Force            0.013807     0.000450     NO 
 RMS     Force            0.003968     0.000300     NO 
 Maximum Displacement     0.110154     0.001800     NO 
 RMS     Displacement     0.027550     0.001200     NO 
 Predicted change in Energy=-1.371889D-03
 GradGradGradGradGradGradGradGradGradGradGradGradGradGradGradGradGradGrad

                          Input orientation:                          
 ---------------------------------------------------------------------
 Center     Atomic      Atomic             Coordinates (Angstroms)
 Number     Number       Type             X           Y           Z
 ---------------------------------------------------------------------
      1          6           0       -2.527734   -1.038048   -0.871120
      2          6           0       -1.430693   -1.223615   -0.012180
      3          6           0       -1.020425   -0.196448    0.856564
      4          6           0       -1.712828    1.016701    0.862142
      5          6           0       -2.805816    1.203090    0.007272
      6          6           0       -3.212346    0.179968   -0.856537
      7          1           0       -2.835311   -1.846426   -1.541832
      8          1           0       -0.165576   -0.353634    1.519381
      9          1           0       -1.401523    1.816939    1.531835
     10          1           0       -3.343693    2.151350    0.014299
     11          1           0       -4.063473    0.331324   -1.519067
     12          6           0       -0.723525   -2.518206   -0.045849
     13          8           0       -0.960533   -3.486403   -0.735664
     14          8           0        0.329172   -2.581068    0.836010
     15          1           0        0.801237   -3.447961    0.812274
 ---------------------------------------------------------------------
                    Distance matrix (angstroms):
                    1          2          3          4          5
     1  C    0.000000
     2  C    1.405601   0.000000
     3  C    2.442369   1.406452   0.000000
     4  C    2.808961   2.421374   1.396847   0.000000
     5  C    2.423139   2.789308   2.422318   1.400059   0.000000
     6  C    1.397308   2.420181   2.807298   2.429513   1.399360
     7  H    1.094501   2.168106   3.430531   3.903403   3.420547
     8  H    3.429681   2.168656   1.093070   2.168818   3.417709
     9  H    3.897883   3.410249   2.157533   1.088935   2.161745
    10  H    3.409108   3.879519   3.408686   2.160090   1.090211
    11  H    2.157199   3.408824   3.896448   3.415469   2.161339
    12  C    2.475300   1.475529   2.508598   3.781367   4.264599
    13  O    2.910139   2.421711   3.655486   4.837031   5.093953
    14  O    3.668394   2.378913   2.740118   4.136953   4.983453
    15  H    4.441120   3.257138   3.727299   5.124082   5.940634
                    6          7          8          9         10
     6  C    0.000000
     7  H    2.172109   0.000000
     8  H    3.900324   4.327464   0.000000
     9  H    3.415123   4.992336   2.497820   0.000000
    10  H    2.159156   4.319979   4.317482   2.487321   0.000000
    11  H    1.089161   2.500299   4.989483   4.312891   2.486321
    12  C    3.759201   2.673742   2.728851   4.662858   5.354779
    13  O    4.304364   2.618057   3.940993   5.784587   6.166535
    14  O    4.798998   4.025889   2.381855   4.777231   6.046563
    15  H    5.661771   4.618573   3.318070   5.752312   7.012097
                   11         12         13         14         15
    11  H    0.000000
    12  C    4.630923   0.000000
    13  O    4.981666   1.212197   0.000000
    14  O    5.772672   1.374699   2.225562   0.000000
    15  H    6.586619   1.981343   2.345512   0.987377   0.000000
 Stoichiometry    C7H6O2
 Framework group  C1[X(C7H6O2)]
 Deg. of freedom    39
 Full point group                 C1      NOp   1
 Largest Abelian subgroup         C1      NOp   1
 Largest concise Abelian subgroup C1      NOp   1
                         Standard orientation:                         
 ---------------------------------------------------------------------
 Center     Atomic      Atomic             Coordinates (Angstroms)
 Number     Number       Type             X           Y           Z
 ---------------------------------------------------------------------
      1          6           0        0.531925    1.243418    0.000142
      2          6           0       -0.213753    0.051915    0.000190
      3          6           0        0.433117   -1.196951   -0.000078
      4          6           0        1.829027   -1.248126   -0.000075
      5          6           0        2.573219   -0.062232   -0.000021
      6          6           0        1.927765    1.179380    0.000014
      7          1           0        0.014630    2.207959    0.000150
      8          1           0       -0.158559   -2.116039   -0.000187
      9          1           0        2.337452   -2.211081   -0.000214
     10          1           0        3.662546   -0.106112   -0.000181
     11          1           0        2.512521    2.098255    0.000104
     12          6           0       -1.686340    0.145048    0.000042
     13          8           0       -2.376434    1.141639   -0.000274
     14          8           0       -2.304620   -1.082765    0.000141
     15          1           0       -3.289916   -1.018680    0.000104
 ---------------------------------------------------------------------
 Rotational constants (GHZ):      3.8620489      1.2149843      0.9242265
 Standard basis: VSTO-6G (5D, 7F)
 There are    42 symmetry adapted cartesian basis functions of A   symmetry.
 There are    42 symmetry adapted basis functions of A   symmetry.
    42 basis functions,   252 primitive gaussians,    42 cartesian basis functions
    23 alpha electrons       23 beta electrons
       nuclear repulsion energy       238.5800094152 Hartrees.
 Integral buffers will be    262144 words long.
 Regular integral format.
 Two-electron integral symmetry is turned off.
 Do NDO integrals.
 One-electron integrals computed using PRISM.
 NBasis=    42 RedAO= F EigKep=  0.00D+00  NBF=    42
 NBsUse=    42 1.00D-04 EigRej=  0.00D+00 NBFU=    42
 Initial guess from the checkpoint file:  "D:\mindmap\gaussian\calculate\opt_freq\bencooh\3f.chk"
 B after Tr=     0.000000    0.000000    0.000000
         Rot=    0.999997   -0.000001   -0.000001   -0.002473 Ang=  -0.28 deg.
 Overlap will be assumed to be unity.
 Keep J ints in memory in canonical form, NReq=894151.
 Requested convergence on RMS density matrix=1.00D-08 within 128 cycles.
 Requested convergence on MAX density matrix=1.00D-06.
 Requested convergence on             energy=1.00D-06.
 No special actions if energy rises.
 SCF Done:  E(RPM6) = -0.102353964404     A.U. after   15 cycles
            NFock= 14  Conv=0.29D-08     -V/T= 0.9962
 Calling FoFJK, ICntrl=      2127 FMM=F ISym2X=0 I1Cent= 0 IOpClX= 0 NMat=1 NMatS=1 NMatT=0.
 ***** Axes restored to original set *****
 -------------------------------------------------------------------
 Center     Atomic                   Forces (Hartrees/Bohr)
 Number     Number              X              Y              Z
 -------------------------------------------------------------------
      1        6           0.000780418    0.000735459    0.001046513
      2        6           0.001841219    0.002887803    0.002999133
      3        6          -0.001760481   -0.000551544   -0.001772150
      4        6           0.000021129   -0.000818475   -0.000402256
      5        6           0.000215864   -0.000198482    0.000067847
      6        6           0.000449406   -0.000799580    0.000017733
      7        1           0.000275947    0.000363860    0.000425234
      8        1          -0.000057436   -0.000393195   -0.000246871
      9        1           0.000011645    0.000094556    0.000060048
     10        1          -0.000080991    0.000185718    0.000031351
     11        1          -0.000087837    0.000021358   -0.000074548
     12        6          -0.003476312   -0.003721763   -0.004882936
     13        8           0.000010843   -0.000781384   -0.000372892
     14        8           0.001270287    0.005784695    0.004002336
     15        1           0.000586298   -0.002809025   -0.000898541
 -------------------------------------------------------------------
 Cartesian Forces:  Max     0.005784695 RMS     0.001780264

 GradGradGradGradGradGradGradGradGradGradGradGradGradGradGradGradGradGrad
 Berny optimization.
 Using GEDIIS/GDIIS optimizer.
 FormGI is forming the generalized inverse of G from B-inverse, IUseBI=4.
 Internal  Forces:  Max     0.004511933 RMS     0.001023013
 Search for a local minimum.
 Step number   3 out of a maximum of   77
 All quantities printed in internal units (Hartrees-Bohrs-Radians)
 Mixed Optimization -- RFO/linear search
 Update second derivatives using D2CorX and points    1    2    3
 DE= -1.52D-03 DEPred=-1.37D-03 R= 1.11D+00
 TightC=F SS=  1.41D+00  RLast= 1.02D-01 DXNew= 8.4853D-01 3.0486D-01
 Trust test= 1.11D+00 RLast= 1.02D-01 DXMaxT set to 5.05D-01
 ITU=  1  1  0
 Use linear search instead of GDIIS.
     Eigenvalues ---    0.00237   0.00539   0.01295   0.01572   0.02152
     Eigenvalues ---    0.02153   0.02154   0.02155   0.02155   0.02155
     Eigenvalues ---    0.02156   0.02157   0.14781   0.16000   0.16000
     Eigenvalues ---    0.16000   0.16002   0.16435   0.18186   0.22001
     Eigenvalues ---    0.22006   0.23597   0.25002   0.25349   0.32359
     Eigenvalues ---    0.33647   0.33712   0.33718   0.33723   0.33827
     Eigenvalues ---    0.42179   0.42839   0.46044   0.46424   0.46465
     Eigenvalues ---    0.46574   0.49001   0.53261   0.87522
 RFO step:  Lambda=-2.58738136D-04 EMin= 2.36824082D-03
 Quartic linear search produced a step of  0.14838.
 Iteration  1 RMS(Cart)=  0.00990215 RMS(Int)=  0.00007979
 Iteration  2 RMS(Cart)=  0.00012086 RMS(Int)=  0.00000090
 Iteration  3 RMS(Cart)=  0.00000001 RMS(Int)=  0.00000090
 Variable       Old X    -DE/DX   Delta X   Delta X   Delta X     New X
                                 (Linear)    (Quad)   (Total)
    R1        2.65620  -0.00158   0.00194  -0.00455  -0.00261   2.65359
    R2        2.64053  -0.00095  -0.00001  -0.00221  -0.00222   2.63831
    R3        2.06831  -0.00061  -0.00062  -0.00206  -0.00268   2.06563
    R4        2.65781  -0.00267   0.00153  -0.00702  -0.00549   2.65232
    R5        2.78835   0.00062   0.00377  -0.00264   0.00114   2.78948
    R6        2.63966  -0.00064  -0.00013  -0.00148  -0.00161   2.63805
    R7        2.06560  -0.00014  -0.00066  -0.00051  -0.00117   2.06443
    R8        2.64573  -0.00051  -0.00022  -0.00070  -0.00092   2.64481
    R9        2.05779   0.00011  -0.00096   0.00027  -0.00070   2.05709
   R10        2.64441  -0.00044  -0.00048  -0.00041  -0.00089   2.64352
   R11        2.06020   0.00020  -0.00083   0.00059  -0.00025   2.05995
   R12        2.05822   0.00012  -0.00092   0.00029  -0.00063   2.05759
   R13        2.29072   0.00083   0.00040  -0.00123  -0.00083   2.28989
   R14        2.59780   0.00328   0.00201   0.00552   0.00753   2.60533
   R15        1.86587   0.00277   0.00357   0.00547   0.00904   1.87491
    A1        2.08415   0.00069   0.00047   0.00267   0.00314   2.08729
    A2        2.09012  -0.00050  -0.00064  -0.00252  -0.00316   2.08696
    A3        2.10892  -0.00020   0.00017  -0.00015   0.00002   2.10893
    A4        2.10448  -0.00026  -0.00140  -0.00117  -0.00257   2.10191
    A5        2.06683  -0.00058  -0.00043  -0.00279  -0.00322   2.06361
    A6        2.11187   0.00083   0.00183   0.00396   0.00580   2.11767
    A7        2.08536   0.00049   0.00038   0.00155   0.00192   2.08728
    A8        2.09170  -0.00071  -0.00072  -0.00410  -0.00482   2.08688
    A9        2.10613   0.00022   0.00034   0.00255   0.00289   2.10903
   A10        2.09457  -0.00002   0.00025   0.00017   0.00041   2.09499
   A11        2.09322   0.00004   0.00003   0.00001   0.00004   2.09327
   A12        2.09539  -0.00002  -0.00027  -0.00018  -0.00045   2.09493
   A13        2.10177  -0.00057   0.00024  -0.00197  -0.00172   2.10004
   A14        2.09096   0.00025  -0.00011   0.00071   0.00060   2.09156
   A15        2.09046   0.00032  -0.00013   0.00126   0.00113   2.09158
   A16        2.09604  -0.00034   0.00007  -0.00125  -0.00118   2.09487
   A17        2.09169   0.00017   0.00008   0.00053   0.00061   2.09230
   A18        2.09545   0.00017  -0.00014   0.00071   0.00057   2.09602
   A19        2.23960   0.00252   0.00726   0.01234   0.01960   2.25920
   A20        1.97413  -0.00451  -0.00751  -0.02080  -0.02831   1.94582
   A21        2.06945   0.00199   0.00025   0.00845   0.00871   2.07816
   A22        1.97234  -0.00219   0.00837  -0.01780  -0.00942   1.96291
    D1       -0.00016   0.00000  -0.00007   0.00018   0.00012  -0.00004
    D2       -3.14138   0.00000   0.00009  -0.00025  -0.00016  -3.14153
    D3        3.14138   0.00000  -0.00006   0.00027   0.00021   3.14159
    D4        0.00016   0.00000   0.00010  -0.00017  -0.00007   0.00009
    D5       -0.00004   0.00000  -0.00002   0.00010   0.00008   0.00004
    D6       -3.14146   0.00000   0.00003  -0.00011  -0.00009  -3.14154
    D7       -3.14157   0.00000  -0.00003   0.00001  -0.00001  -3.14158
    D8        0.00019   0.00000   0.00002  -0.00020  -0.00018   0.00002
    D9        0.00026  -0.00001   0.00011  -0.00035  -0.00024   0.00002
   D10       -3.14143   0.00000   0.00008  -0.00020  -0.00012  -3.14156
   D11        3.14147   0.00000  -0.00005   0.00010   0.00004   3.14152
   D12       -0.00022   0.00000  -0.00009   0.00025   0.00016  -0.00007
   D13        0.00016   0.00000  -0.00011  -0.00070  -0.00081  -0.00065
   D14       -3.14157   0.00001  -0.00015   0.00047   0.00032  -3.14124
   D15       -3.14106  -0.00001   0.00005  -0.00113  -0.00109   3.14104
   D16        0.00040   0.00000   0.00001   0.00003   0.00005   0.00045
   D17       -0.00018   0.00000  -0.00006   0.00023   0.00016  -0.00001
   D18        3.14152   0.00000  -0.00001   0.00008   0.00007   3.14159
   D19        3.14152   0.00000  -0.00003   0.00008   0.00005   3.14157
   D20        0.00003   0.00000   0.00002  -0.00007  -0.00005  -0.00002
   D21       -0.00001   0.00000  -0.00002   0.00005   0.00003   0.00002
   D22       -3.14142   0.00000   0.00001  -0.00022  -0.00021   3.14156
   D23        3.14147   0.00000  -0.00007   0.00020   0.00013  -3.14159
   D24        0.00007   0.00000  -0.00004  -0.00007  -0.00011  -0.00005
   D25        0.00012   0.00000   0.00006  -0.00021  -0.00015  -0.00003
   D26        3.14154   0.00000   0.00002   0.00000   0.00001   3.14155
   D27        3.14153   0.00000   0.00003   0.00005   0.00009  -3.14157
   D28       -0.00024   0.00001  -0.00001   0.00026   0.00025   0.00002
   D29        3.14152   0.00000  -0.00008  -0.00042  -0.00049   3.14103
   D30       -0.00019   0.00000  -0.00011   0.00062   0.00051   0.00032
         Item               Value     Threshold  Converged?
 Maximum Force            0.004512     0.000450     NO 
 RMS     Force            0.001023     0.000300     NO 
 Maximum Displacement     0.040533     0.001800     NO 
 RMS     Displacement     0.009955     0.001200     NO 
 Predicted change in Energy=-1.517804D-04
 GradGradGradGradGradGradGradGradGradGradGradGradGradGradGradGradGradGrad

                          Input orientation:                          
 ---------------------------------------------------------------------
 Center     Atomic      Atomic             Coordinates (Angstroms)
 Number     Number       Type             X           Y           Z
 ---------------------------------------------------------------------
      1          6           0       -2.527939   -1.036133   -0.870601
      2          6           0       -1.431293   -1.226009   -0.014360
      3          6           0       -1.021063   -0.201798    0.853190
      4          6           0       -1.710648    1.011957    0.861627
      5          6           0       -2.803838    1.202478    0.008725
      6          6           0       -3.211811    0.180948   -0.855522
      7          1           0       -2.835398   -1.843260   -1.540558
      8          1           0       -0.166008   -0.364685    1.513338
      9          1           0       -1.397270    1.810118    1.532233
     10          1           0       -3.340021    2.151528    0.017983
     11          1           0       -4.062820    0.333215   -1.517448
     12          6           0       -0.730059   -2.524306   -0.055074
     13          8           0       -0.955529   -3.499973   -0.737422
     14          8           0        0.319494   -2.559618    0.838211
     15          1           0        0.801136   -3.426901    0.823204
 ---------------------------------------------------------------------
                    Distance matrix (angstroms):
                    1          2          3          4          5
     1  C    0.000000
     2  C    1.404220   0.000000
     3  C    2.436851   1.403546   0.000000
     4  C    2.804149   2.419480   1.395994   0.000000
     5  C    2.420891   2.789617   2.421445   1.399573   0.000000
     6  C    1.396135   2.420191   2.804562   2.427482   1.398889
     7  H    1.093082   2.163744   3.422899   3.897156   3.417279
     8  H    3.422386   2.162565   1.092450   2.169282   3.417310
     9  H    3.892707   3.407517   2.156487   1.088567   2.160726
    10  H    3.407380   3.879697   3.407827   2.159911   1.090080
    11  H    2.156243   3.408135   3.893385   3.413708   2.160986
    12  C    2.472270   1.476131   2.510711   3.782466   4.265390
    13  O    2.925871   2.433122   3.662281   4.846099   5.107448
    14  O    3.653618   2.360222   2.712312   4.108306   4.959498
    15  H    4.434804   3.244870   3.704403   5.100392   5.923712
                    6          7          8          9         10
     6  C    0.000000
     7  H    2.169880   0.000000
     8  H    3.896939   4.317188   0.000000
     9  H    3.412936   4.985722   2.499226   0.000000
    10  H    2.159314   4.317642   4.317612   2.486724   0.000000
    11  H    1.088828   2.498828   4.985767   4.311259   2.487217
    12  C    3.757421   2.665134   2.728010   4.663898   5.355433
    13  O    4.319020   2.631280   3.939454   5.791678   6.180284
    14  O    4.780120   4.015601   2.347178   4.745898   6.021605
    15  H    5.651411   4.617323   3.284634   5.723817   6.994029
                   11         12         13         14         15
    11  H    0.000000
    12  C    4.627230   0.000000
    13  O    4.995701   1.211759   0.000000
    14  O    5.755197   1.378683   2.234405   0.000000
    15  H    6.578388   1.982576   2.350907   0.992161   0.000000
 Stoichiometry    C7H6O2
 Framework group  C1[X(C7H6O2)]
 Deg. of freedom    39
 Full point group                 C1      NOp   1
 Largest Abelian subgroup         C1      NOp   1
 Largest concise Abelian subgroup C1      NOp   1
                         Standard orientation:                         
 ---------------------------------------------------------------------
 Center     Atomic      Atomic             Coordinates (Angstroms)
 Number     Number       Type             X           Y           Z
 ---------------------------------------------------------------------
      1          6           0        0.530714    1.242419   -0.000070
      2          6           0       -0.215630    0.052963   -0.000114
      3          6           0        0.431646   -1.192418   -0.000083
      4          6           0        1.826676   -1.244292    0.000022
      5          6           0        2.571719   -0.059507    0.000080
      6          6           0        1.925505    1.181178    0.000053
      7          1           0        0.012179    2.204682   -0.000101
      8          1           0       -0.162830   -2.108957   -0.000152
      9          1           0        2.334465   -2.207167    0.000050
     10          1           0        3.660901   -0.103750    0.000197
     11          1           0        2.508837    2.100564    0.000134
     12          6           0       -1.688393    0.152612   -0.000322
     13          8           0       -2.393302    1.138241    0.000141
     14          8           0       -2.278851   -1.093232    0.000108
     15          1           0       -3.269749   -1.043182    0.000490
 ---------------------------------------------------------------------
 Rotational constants (GHZ):      3.8609604      1.2179577      0.9258835
 Standard basis: VSTO-6G (5D, 7F)
 There are    42 symmetry adapted cartesian basis functions of A   symmetry.
 There are    42 symmetry adapted basis functions of A   symmetry.
    42 basis functions,   252 primitive gaussians,    42 cartesian basis functions
    23 alpha electrons       23 beta electrons
       nuclear repulsion energy       238.6787753106 Hartrees.
 Integral buffers will be    262144 words long.
 Regular integral format.
 Two-electron integral symmetry is turned off.
 Do NDO integrals.
 One-electron integrals computed using PRISM.
 NBasis=    42 RedAO= F EigKep=  0.00D+00  NBF=    42
 NBsUse=    42 1.00D-04 EigRej=  0.00D+00 NBFU=    42
 Initial guess from the checkpoint file:  "D:\mindmap\gaussian\calculate\opt_freq\bencooh\3f.chk"
 B after Tr=     0.000000    0.000000    0.000000
         Rot=    0.999999    0.000000    0.000000   -0.001313 Ang=  -0.15 deg.
 Overlap will be assumed to be unity.
 Keep J ints in memory in canonical form, NReq=894151.
 Requested convergence on RMS density matrix=1.00D-08 within 128 cycles.
 Requested convergence on MAX density matrix=1.00D-06.
 Requested convergence on             energy=1.00D-06.
 No special actions if energy rises.
 SCF Done:  E(RPM6) = -0.102502649268     A.U. after   14 cycles
            NFock= 13  Conv=0.62D-08     -V/T= 0.9962
 Calling FoFJK, ICntrl=      2127 FMM=F ISym2X=0 I1Cent= 0 IOpClX= 0 NMat=1 NMatS=1 NMatT=0.
 ***** Axes restored to original set *****
 -------------------------------------------------------------------
 Center     Atomic                   Forces (Hartrees/Bohr)
 Number     Number              X              Y              Z
 -------------------------------------------------------------------
      1        6          -0.000176979    0.000048509   -0.000124705
      2        6          -0.000011213    0.000397813    0.000128711
      3        6          -0.000140453   -0.000145351   -0.000196084
      4        6          -0.000189522    0.000173969   -0.000076939
      5        6           0.000128405    0.000292424    0.000264871
      6        6          -0.000176171   -0.000331053   -0.000317153
      7        1          -0.000201016   -0.000131468   -0.000240852
      8        1           0.000394993    0.000070899    0.000379066
      9        1           0.000118266    0.000270958    0.000238125
     10        1          -0.000115644    0.000229247    0.000011299
     11        1          -0.000259713    0.000066735   -0.000193291
     12        6          -0.001170770   -0.001810318   -0.001774693
     13        8           0.000507024    0.001228763    0.000998783
     14        8           0.001028999    0.000626122    0.001171750
     15        1           0.000263793   -0.000987249   -0.000268889
 -------------------------------------------------------------------
 Cartesian Forces:  Max     0.001810318 RMS     0.000596866

 GradGradGradGradGradGradGradGradGradGradGradGradGradGradGradGradGradGrad
 Berny optimization.
 Using GEDIIS/GDIIS optimizer.
 FormGI is forming the generalized inverse of G from B-inverse, IUseBI=4.
 Internal  Forces:  Max     0.001646118 RMS     0.000421998
 Search for a local minimum.
 Step number   4 out of a maximum of   77
 All quantities printed in internal units (Hartrees-Bohrs-Radians)
 Mixed Optimization -- En-DIIS/RFO-DIIS
 Update second derivatives using D2CorX and points    1    2    3    4
 DE= -1.49D-04 DEPred=-1.52D-04 R= 9.80D-01
 TightC=F SS=  1.41D+00  RLast= 4.08D-02 DXNew= 8.4853D-01 1.2229D-01
 Trust test= 9.80D-01 RLast= 4.08D-02 DXMaxT set to 5.05D-01
 ITU=  1  1  1  0
 Use linear search instead of GDIIS.
     Eigenvalues ---    0.00237   0.00534   0.01295   0.01570   0.02152
     Eigenvalues ---    0.02153   0.02154   0.02155   0.02155   0.02155
     Eigenvalues ---    0.02156   0.02157   0.15019   0.16000   0.16000
     Eigenvalues ---    0.16000   0.16023   0.16118   0.17835   0.22001
     Eigenvalues ---    0.22015   0.23593   0.25023   0.26237   0.32373
     Eigenvalues ---    0.33704   0.33713   0.33722   0.33787   0.33983
     Eigenvalues ---    0.41461   0.42164   0.44978   0.46352   0.46463
     Eigenvalues ---    0.46610   0.51173   0.52923   0.88957
 RFO step:  Lambda=-2.86230481D-05 EMin= 2.36823575D-03
 Quartic linear search produced a step of -0.03553.
 Iteration  1 RMS(Cart)=  0.00326314 RMS(Int)=  0.00000824
 Iteration  2 RMS(Cart)=  0.00000927 RMS(Int)=  0.00000248
 Iteration  3 RMS(Cart)=  0.00000000 RMS(Int)=  0.00000248
 Variable       Old X    -DE/DX   Delta X   Delta X   Delta X     New X
                                 (Linear)    (Quad)   (Total)
    R1        2.65359   0.00079   0.00009   0.00134   0.00144   2.65503
    R2        2.63831   0.00029   0.00008   0.00038   0.00046   2.63877
    R3        2.06563   0.00030   0.00010   0.00058   0.00067   2.06630
    R4        2.65232   0.00045   0.00020   0.00035   0.00055   2.65286
    R5        2.78948   0.00112  -0.00004   0.00354   0.00350   2.79299
    R6        2.63805   0.00056   0.00006   0.00099   0.00105   2.63909
    R7        2.06443   0.00053   0.00004   0.00137   0.00141   2.06585
    R8        2.64481   0.00022   0.00003   0.00037   0.00040   2.64521
    R9        2.05709   0.00038   0.00002   0.00100   0.00102   2.05812
   R10        2.64352   0.00064   0.00003   0.00125   0.00128   2.64479
   R11        2.05995   0.00026   0.00001   0.00070   0.00071   2.06066
   R12        2.05759   0.00033   0.00002   0.00086   0.00089   2.05847
   R13        2.28989  -0.00165   0.00003  -0.00217  -0.00214   2.28775
   R14        2.60533   0.00158  -0.00027   0.00423   0.00397   2.60930
   R15        1.87491   0.00100  -0.00032   0.00262   0.00230   1.87721
    A1        2.08729   0.00012  -0.00011   0.00083   0.00072   2.08801
    A2        2.08696   0.00011   0.00011   0.00039   0.00050   2.08746
    A3        2.10893  -0.00022   0.00000  -0.00122  -0.00122   2.10772
    A4        2.10191  -0.00019   0.00009  -0.00090  -0.00081   2.10110
    A5        2.06361  -0.00017   0.00011  -0.00105  -0.00094   2.06267
    A6        2.11767   0.00036  -0.00021   0.00195   0.00174   2.11941
    A7        2.08728   0.00005  -0.00007   0.00036   0.00030   2.08758
    A8        2.08688   0.00014   0.00017   0.00042   0.00059   2.08747
    A9        2.10903  -0.00019  -0.00010  -0.00078  -0.00089   2.10814
   A10        2.09499   0.00007  -0.00001   0.00028   0.00027   2.09525
   A11        2.09327  -0.00005   0.00000  -0.00020  -0.00020   2.09307
   A12        2.09493  -0.00002   0.00002  -0.00008  -0.00007   2.09487
   A13        2.10004   0.00000   0.00006  -0.00025  -0.00019   2.09986
   A14        2.09156  -0.00001  -0.00002   0.00001  -0.00002   2.09154
   A15        2.09158   0.00002  -0.00004   0.00025   0.00021   2.09179
   A16        2.09487  -0.00004   0.00004  -0.00033  -0.00029   2.09458
   A17        2.09230   0.00004  -0.00002   0.00029   0.00027   2.09257
   A18        2.09602   0.00000  -0.00002   0.00004   0.00002   2.09603
   A19        2.25920  -0.00018  -0.00070   0.00139   0.00068   2.25988
   A20        1.94582   0.00088   0.00101   0.00046   0.00146   1.94728
   A21        2.07816  -0.00071  -0.00031  -0.00184  -0.00216   2.07600
   A22        1.96291  -0.00067   0.00033  -0.00512  -0.00479   1.95813
    D1       -0.00004   0.00000   0.00000   0.00004   0.00004   0.00000
    D2       -3.14153   0.00000   0.00001  -0.00015  -0.00015   3.14150
    D3        3.14159   0.00000  -0.00001   0.00005   0.00004  -3.14156
    D4        0.00009   0.00000   0.00000  -0.00015  -0.00015  -0.00006
    D5        0.00004   0.00000   0.00000  -0.00003  -0.00003   0.00001
    D6       -3.14154   0.00000   0.00000  -0.00005  -0.00005  -3.14159
    D7       -3.14158   0.00000   0.00000  -0.00003  -0.00003   3.14157
    D8        0.00002   0.00000   0.00001  -0.00005  -0.00005  -0.00003
    D9        0.00002   0.00000   0.00001  -0.00004  -0.00003  -0.00001
   D10       -3.14156   0.00000   0.00000  -0.00008  -0.00007   3.14155
   D11        3.14152   0.00000   0.00000   0.00017   0.00016  -3.14151
   D12       -0.00007   0.00000  -0.00001   0.00013   0.00012   0.00006
   D13       -0.00065   0.00003   0.00003   0.00458   0.00461   0.00396
   D14       -3.14124  -0.00002  -0.00001  -0.00420  -0.00422   3.13773
   D15        3.14104   0.00002   0.00004   0.00438   0.00442  -3.13772
   D16        0.00045  -0.00003   0.00000  -0.00440  -0.00441  -0.00396
   D17       -0.00001   0.00000  -0.00001   0.00002   0.00002   0.00000
   D18        3.14159   0.00000   0.00000   0.00000   0.00000   3.14159
   D19        3.14157   0.00000   0.00000   0.00006   0.00006  -3.14156
   D20       -0.00002   0.00000   0.00000   0.00004   0.00005   0.00003
   D21        0.00002   0.00000   0.00000  -0.00001  -0.00001   0.00001
   D22        3.14156   0.00000   0.00001   0.00003   0.00003   3.14159
   D23       -3.14159   0.00000   0.00000   0.00001   0.00001  -3.14158
   D24       -0.00005   0.00000   0.00000   0.00004   0.00005   0.00000
   D25       -0.00003   0.00000   0.00001   0.00001   0.00002  -0.00002
   D26        3.14155   0.00000   0.00000   0.00003   0.00003   3.14159
   D27       -3.14157   0.00000   0.00000  -0.00002  -0.00003   3.14159
   D28        0.00002   0.00000  -0.00001   0.00000  -0.00001   0.00000
   D29        3.14103   0.00003   0.00002   0.00410   0.00412  -3.13804
   D30        0.00032  -0.00002  -0.00002  -0.00366  -0.00367  -0.00335
         Item               Value     Threshold  Converged?
 Maximum Force            0.001646     0.000450     NO 
 RMS     Force            0.000422     0.000300     NO 
 Maximum Displacement     0.013293     0.001800     NO 
 RMS     Displacement     0.003262     0.001200     NO 
 Predicted change in Energy=-1.450981D-05
 GradGradGradGradGradGradGradGradGradGradGradGradGradGradGradGradGradGrad

                          Input orientation:                          
 ---------------------------------------------------------------------
 Center     Atomic      Atomic             Coordinates (Angstroms)
 Number     Number       Type             X           Y           Z
 ---------------------------------------------------------------------
      1          6           0       -2.528094   -1.035972   -0.869553
      2          6           0       -1.431465   -1.225954   -0.012067
      3          6           0       -1.022053   -0.200559    0.854940
      4          6           0       -1.711788    1.013759    0.861736
      5          6           0       -2.804483    1.204003    0.007789
      6          6           0       -3.212141    0.181312   -0.856328
      7          1           0       -2.836030   -1.843307   -1.539622
      8          1           0       -0.167099   -0.362180    1.516768
      9          1           0       -1.398556    1.812755    1.532295
     10          1           0       -3.340547    2.153560    0.015960
     11          1           0       -4.062958    0.333212   -1.519357
     12          6           0       -0.730932   -2.526746   -0.052467
     13          8           0       -0.953926   -3.500193   -0.736785
     14          8           0        0.323681   -2.563247    0.838048
     15          1           0        0.803322   -3.432881    0.816170
 ---------------------------------------------------------------------
                    Distance matrix (angstroms):
                    1          2          3          4          5
     1  C    0.000000
     2  C    1.404981   0.000000
     3  C    2.437201   1.403835   0.000000
     4  C    2.804481   2.420419   1.396549   0.000000
     5  C    2.421489   2.791105   2.422296   1.399787   0.000000
     6  C    1.396379   2.421566   2.805486   2.428121   1.399565
     7  H    1.093439   2.165030   3.423896   3.897854   3.417832
     8  H    3.423860   2.163808   1.093199   2.169870   3.418442
     9  H    3.893581   3.408796   2.157313   1.089109   2.161326
    10  H    3.408420   3.881558   3.408985   2.160403   1.090453
    11  H    2.157016   3.409938   3.894778   3.414784   2.161992
    12  C    2.473829   1.477985   2.513819   3.785898   4.268693
    13  O    2.927117   2.434218   3.664125   4.848235   5.109639
    14  O    3.658017   2.364653   2.719113   4.115661   4.966580
    15  H    4.436796   3.248195   3.712330   5.108860   5.930466
                    6          7          8          9         10
     6  C    0.000000
     7  H    2.169662   0.000000
     8  H    3.898622   4.319543   0.000000
     9  H    3.414120   4.986963   2.499414   0.000000
    10  H    2.160356   4.318486   4.318813   2.487317   0.000000
    11  H    1.089297   2.498599   4.987919   4.312848   2.488522
    12  C    3.759810   2.666488   2.732353   4.667812   5.359108
    13  O    4.320567   2.632894   3.942679   5.794293   6.182839
    14  O    4.785975   4.019378   2.355042   4.753680   6.029151
    15  H    5.655403   4.617508   3.295718   5.733916   7.001450
                   11         12         13         14         15
    11  H    0.000000
    12  C    4.629636   0.000000
    13  O    4.997348   1.210626   0.000000
    14  O    5.761027   1.380781   2.233886   0.000000
    15  H    6.581703   1.982307   2.346086   0.993376   0.000000
 Stoichiometry    C7H6O2
 Framework group  C1[X(C7H6O2)]
 Deg. of freedom    39
 Full point group                 C1      NOp   1
 Largest Abelian subgroup         C1      NOp   1
 Largest concise Abelian subgroup C1      NOp   1
                         Standard orientation:                         
[...]
    A5        2.06255   0.00003   0.00000   0.00012   0.00012   2.06268
    A6        2.11923  -0.00002   0.00000  -0.00009  -0.00009   2.11914
    A7        2.08744   0.00001   0.00000   0.00006   0.00006   2.08750
    A8        2.08803   0.00001   0.00000   0.00020   0.00020   2.08823
    A9        2.10771  -0.00001   0.00000  -0.00026  -0.00026   2.10745
   A10        2.09527  -0.00001   0.00000  -0.00006  -0.00006   2.09521
   A11        2.09287  -0.00001   0.00000  -0.00024  -0.00024   2.09263
   A12        2.09504   0.00002   0.00000   0.00031   0.00031   2.09534
   A13        2.09988   0.00000   0.00000   0.00001   0.00001   2.09989
   A14        2.09162   0.00002   0.00000   0.00028   0.00028   2.09191
   A15        2.09168  -0.00002   0.00000  -0.00030  -0.00030   2.09138
   A16        2.09454   0.00001   0.00000   0.00006   0.00006   2.09461
   A17        2.09278   0.00001   0.00000   0.00024   0.00024   2.09302
   A18        2.09586  -0.00002   0.00000  -0.00030  -0.00030   2.09556
   A19        2.25923   0.00007   0.00000   0.00023   0.00023   2.25946
   A20        1.94893  -0.00001   0.00000   0.00017   0.00017   1.94909
   A21        2.07503  -0.00005   0.00000  -0.00040  -0.00040   2.07463
   A22        1.95616  -0.00009   0.00000  -0.00109  -0.00109   1.95508
    D1        0.00000   0.00000   0.00000   0.00000   0.00000   0.00000
    D2       -3.14159   0.00000   0.00000   0.00000   0.00000  -3.14159
    D3        3.14159   0.00000   0.00000   0.00000   0.00000   3.14159
    D4        0.00000   0.00000   0.00000   0.00000   0.00000   0.00000
    D5       -0.00001   0.00000   0.00000   0.00001   0.00001   0.00000
    D6        3.14159   0.00000   0.00000   0.00001   0.00001   3.14159
    D7        3.14159   0.00000   0.00000   0.00000   0.00000   3.14159
    D8        0.00000   0.00000   0.00000   0.00000   0.00000   0.00000
    D9        0.00000   0.00000   0.00000   0.00000   0.00000   0.00000
   D10        3.14159   0.00000   0.00000   0.00000   0.00000   3.14159
   D11        3.14159   0.00000   0.00000   0.00000   0.00000   3.14159
   D12        0.00000   0.00000   0.00000   0.00000   0.00000   0.00000
   D13       -0.00027   0.00001   0.00000   0.00027   0.00027   0.00000
   D14       -3.14145  -0.00001   0.00000  -0.00015  -0.00015   3.14159
   D15        3.14133   0.00001   0.00000   0.00026   0.00026   3.14159
   D16        0.00015  -0.00001   0.00000  -0.00015  -0.00015   0.00000
   D17        0.00000   0.00000   0.00000   0.00000   0.00000   0.00000
   D18       -3.14159   0.00000   0.00000   0.00000   0.00000   3.14159
   D19       -3.14159   0.00000   0.00000   0.00000   0.00000   3.14159
   D20        0.00001   0.00000   0.00000  -0.00001  -0.00001   0.00000
   D21        0.00000   0.00000   0.00000   0.00000   0.00000   0.00000
   D22       -3.14159   0.00000   0.00000  -0.00001  -0.00001  -3.14159
   D23        3.14159   0.00000   0.00000   0.00001   0.00001   3.14159
   D24        0.00000   0.00000   0.00000   0.00000   0.00000   0.00000
   D25        0.00001   0.00000   0.00000  -0.00001  -0.00001   0.00000
   D26       -3.14159   0.00000   0.00000  -0.00001  -0.00001   3.14159
   D27        3.14159   0.00000   0.00000   0.00000   0.00000   3.14159
   D28        0.00000   0.00000   0.00000   0.00000   0.00000   0.00000
   D29        3.14139   0.00001   0.00000   0.00020   0.00020   3.14159
   D30        0.00016  -0.00001   0.00000  -0.00016  -0.00016   0.00000
         Item               Value     Threshold  Converged?
 Maximum Force            0.000339     0.000450     YES
 RMS     Force            0.000060     0.000300     YES
 Maximum Displacement     0.001834     0.001800     NO 
 RMS     Displacement     0.000365     0.001200     YES
 Predicted change in Energy=-5.255090D-07
 GradGradGradGradGradGradGradGradGradGradGradGradGradGradGradGradGradGrad

 1|1|UNPC-DESKTOP-KC5UJLK|Freq|RPM6|ZDO|C7H6O2|23122|18-Mar-2022|0||#N 
 Geom=AllCheck Guess=TCheck SCRF=Check GenChk RPM6/ZDO Freq||opt freq(G
 C)||0,1|C,-2.527383645,-1.0358391462,-0.8698997125|C,-1.4302851154,-1.
 2249935565,-0.012880865|C,-1.0212748803,-0.199968506,0.8540075554|C,-1
 .7119450912,1.0138186119,0.8614441865|C,-2.8049188403,1.2034406668,0.0
 082374546|C,-3.2122189289,0.1807012095,-0.8560346243|H,-2.8353392331,-
 1.843110674,-1.5403448086|H,-0.1657307995,-0.3607082556,1.5157233609|H
 ,-1.3988227973,1.8128842875,1.5322657289|H,-3.3417784649,2.152616497,0
 .0168552858|H,-4.0635449137,0.3323646604,-1.5186312536|C,-0.7291051588
 ,-2.5243428088,-0.0539530352|O,-0.9545487586,-3.4986619548,-0.73594704
 85|O,0.3237453901,-2.5641863761,0.8395552897|H,0.800083127,-3.43645160
 51,0.8171301159||Version=IA32W-G09RevD.01|State=1-A|HF=-0.1025202|RMSD
 =1.796e-010|RMSF=1.070e-004|ZeroPoint=0.1058555|Thermal=0.1134493|Dipo
 le=-0.1665551,0.9660298,0.3379715|DipoleDeriv=-0.0016356,-0.230853,-0.
 1275232,0.0287922,0.0261385,0.0318117,0.0022017,-0.1934057,-0.0822932,
 -0.3964618,0.255212,0.0269601,0.2319314,-0.7068809,-0.0117437,0.015375
 ,0.0083567,-0.2630743,-0.0621253,0.0601995,-0.0416681,-0.180274,0.1155
 346,-0.1089442,-0.161796,0.0996152,-0.0699653,-0.4175075,0.0153425,-0.
 1317351,0.1272976,-0.320219,0.078719,-0.0757939,-0.0183756,-0.3317093,
 0.0547203,0.09911,0.113236,0.097547,-0.0676327,0.0601837,0.1124578,0.0
 615338,0.1095363,-0.2825888,0.0474635,-0.0018846,-0.0733499,-0.4416734
 ,-0.1578464,-0.0622568,-0.0530585,-0.3335802,0.1398322,0.0605898,0.022
 3676,0.0781404,0.2049344,0.0957552,0.0311367,0.0805237,0.2161908,0.257
 2135,0.0034601,0.0969608,-0.0173082,0.1058969,-0.0357514,0.0865889,-0.
 0177404,0.2136403,0.1353471,0.0747931,0.0080348,0.0618707,0.2365086,0.
 0873055,0.0015754,0.0985172,0.2197571,0.1640398,-0.096402,-0.0294477,-
 0.0950378,0.2815351,-0.0129439,-0.0287676,-0.014124,0.1104518,0.271127
 8,-0.0217794,0.0780069,-0.006675,0.1023417,-0.0389165,0.0855523,-0.052
 0128,0.2168589,1.6015874,-0.3970256,0.5818293,-0.3660253,1.9780629,0.3
 198964,0.5973359,0.2929369,1.3666099,-0.6464174,0.0382171,-0.0955968,-
 0.0879093,-1.1827025,-0.4102214,-0.1585452,-0.3006456,-0.801917,-1.237
 7356,0.1783004,-0.484739,0.4400758,-0.7730581,0.2833756,-0.3541329,0.0
 563271,-0.855195,0.4206727,-0.0867218,-0.0147904,-0.2391041,0.4412124,
 -0.1807062,-0.0908935,-0.0485277,0.2846848|Polar=57.7393682,-21.313934
 4,88.0242609,29.7721086,19.9242699,46.9125259|HyperPolar=-12.3167126,-
 64.6205104,153.7967192,-162.385008,-45.6773467,18.8885457,50.9436359,-
 30.36555,42.1254869,-1.3113601|PG=C01 [X(C7H6O2)]|NImag=0||0.45478738,
 -0.12617983,0.57928428,0.20635600,0.10796336,0.37709158,-0.21101641,-0
 .01951170,-0.13720340,0.47497555,0.05945496,-0.08434941,0.04142917,-0.
 10710947,0.60978182,-0.09774748,-0.02705969,-0.16236061,0.23525337,0.1
 4079592,0.41642140,-0.00918027,-0.02354571,-0.02492886,-0.10170050,-0.
 08734951,-0.07603455,0.43885181,-0.09455652,0.06302223,-0.05351837,-0.
 00720756,-0.19457952,-0.07131955,-0.11448045,0.59553794,-0.06040949,0.
 00807020,-0.04236336,-0.03599165,-0.14082683,-0.16593409,0.19820749,0.
 12613356,0.37930147,-0.06312444,0.04671365,-0.02843442,0.05779373,0.03
 952446,0.06428770,-0.13968423,0.05916557,-0.03453950,0.45584994,0.0472
 3448,-0.04392584,0.02073315,-0.03431604,-0.07560577,-0.07075644,0.1505
 2620,-0.26660285,0.03021066,-0.11998157,0.57048202,-0.02817353,0.02028
 111,-0.01773115,0.02739373,-0.00671400,0.02684349,0.01110815,-0.049026
 70,-0.08063727,0.21304599,0.11048072,0.38107110,0.06239502,-0.03798135
 ,0.03004431,-0.04590788,-0.02027355,-0.04629180,-0.04082787,0.10002081
 ,0.00944352,-0.21991883,-0.01742303,-0.14197783,0.45256829,0.03733539,
 -0.07759367,-0.00932277,-0.02018047,-0.02099038,-0.02588540,0.02464027
 ,0.02398699,0.03040575,0.07654164,-0.09753395,0.05075850,-0.09102013,0
 .55718439,0.06767595,-0.07464619,0.02727395,-0.04624551,-0.02596620,-0
 .05729654,-0.02822009,0.09578470,0.02928704,-0.09502825,-0.03073835,-0
 .16403583,0.22068673,0.12666070,0.40037691,-0.14092676,0.15170652,0.01
 062447,-0.03819045,0.02350609,-0.02682037,-0.00737591,0.01348427,0.003
 23271,-0.00794177,-0.02486619,-0.02512734,-0.10463911,-0.08723427,-0.0
 7693109,0.43746366,0.06053481,-0.26647864,-0.04777373,0.09708683,0.018
 99348,0.09056016,0.01294050,-0.09868343,-0.03641699,-0.09942240,0.0676
 9850,-0.05575454,0.00666138,-0.21037389,-0.06626261,-0.10908512,0.5890
 8365,-0.03492985,0.03130184,-0.08043754,0.00994443,0.02674230,0.028261
 71,0.00296096,-0.03594593,-0.01872720,-0.06237928,0.00890904,-0.042946
 71,-0.03001607,-0.14769975,-0.16602557,0.20255233,0.12922859,0.3813313
 3,-0.05158519,-0.04080343,-0.02774460,-0.01313455,-0.01411692,-0.02369
 282,-0.00006919,0.00214638,-0.00333623,0.00044961,-0.00020533,0.000278
 33,0.00095756,0.00248561,-0.00285106,0.00547611,0.01222395,0.00548238,
 0.06102873,-0.03989628,-0.13436280,-0.08020075,-0.00405334,0.00172462,
 -0.00567688,0.00166896,0.00125601,-0.00043013,0.00068547,-0.00009563,0
 .00054153,0.00225557,-0.00166847,-0.00171366,0.00165861,-0.03278332,-0
 .01803783,0.03875971,0.16504244,-0.02729081,-0.08098766,-0.10723752,-0
 .01866511,-0.01440519,-0.01733569,-0.00357468,-0.00001590,0.00190552,0
 .00072355,-0.00023122,0.00052244,-0.00296612,-0.00151427,0.00234754,0.
 00020323,-0.00887412,0.00193951,0.05134046,0.10400716,0.12065814,0.002
 58521,0.00007535,-0.00210733,-0.01046783,-0.00548112,-0.01710715,-0.14
 942505,0.01919192,-0.08257782,-0.01657148,0.01503819,-0.01228205,0.001
 08793,0.00218002,-0.00289167,0.00026505,0.00077791,0.00061708,-0.00012
 837,-0.00017146,-0.00008739,0.17356038,0.00048943,-0.00126176,-0.00273
 334,-0.01592294,-0.00101991,-0.01736710,0.01813221,-0.03806760,0.01826
 981,0.02559611,-0.01109387,0.01353263,0.00239506,-0.00176287,-0.001640
 46,-0.00009772,0.00008226,-0.00004450,-0.00032705,0.00018325,-0.000128
 97,-0.02945795,0.05557266,-0.00190066,-0.00309244,0.00186483,-0.022324
 07,-0.00831018,-0.01741525,-0.08310752,0.01918830,-0.10565128,-0.00700
 689,0.00437592,0.00236192,-0.00278402,-0.00182693,0.00235038,0.0001796
 3,0.00071470,0.00051459,-0.00016514,0.00000598,-0.00026661,0.11489184,
 -0.00983508,0.11885520,0.00004226,0.00016219,0.00000495,0.00134692,0.0
 0239832,-0.00237886,0.00535033,0.01169176,0.00583146,-0.05220965,-0.04
 055399,-0.02961229,-0.01316562,-0.01461389,-0.02352243,0.00003796,0.00
 179204,-0.00366268,-0.00033964,-0.00023830,0.00032691,-0.00026952,0.00
 033844,0.00101149,0.06036430,0.00012832,0.00031345,0.00020299,0.002676
 40,-0.00135111,-0.00108765,0.00176453,-0.03486154,-0.01856709,-0.04046
 629,-0.13485955,-0.08177849,-0.00479094,0.00264502,-0.00560000,0.00168
 012,0.00081919,-0.00077827,-0.00023681,-0.00026459,0.00008903,0.000190
 70,-0.00060647,0.00048235,0.03947534,0.16789732,-0.00001194,0.00023230
 ,0.00023574,-0.00224007,-0.00132873,0.00286469,0.00087142,-0.00995715,
 0.00114293,-0.02956849,-0.08185453,-0.10797256,-0.01861446,-0.01411956
 ,-0.01766271,-0.00371859,-0.00068119,0.00172778,0.00032766,0.00008775,
 -0.00052582,0.00093770,0.00061047,-0.00012251,0.05174275,0.10641121,0.
 12149128,0.00154906,0.00061945,-0.00320684,0.00052958,-0.00077501,-0.0
 0008447,0.00015812,0.00164706,-0.00389194,-0.01964143,0.02405914,-0.01
 043030,-0.08238642,0.07705075,0.00461531,0.00648873,-0.00222839,-0.000
 89129,-0.00005481,-0.00018366,0.00031473,-0.00039235,0.00021211,0.0002
 2484,-0.00089781,-0.00017785,0.00019767,0.09523259,0.00081983,-0.00112
 356,-0.00264996,-0.00075856,0.00148305,-0.00000711,0.00146384,0.000234
 73,-0.00140820,0.01361360,-0.00675004,0.00531470,0.07704524,-0.1751155
 1,0.00097284,0.00820806,-0.03238666,-0.01217690,0.00001072,-0.00040928
 ,0.00006636,0.00002183,-0.00009101,0.00023796,-0.00038640,0.00064068,0
 .00059861,-0.09959577,0.21469994,-0.00310657,-0.00282390,0.00149796,-0
 .00007632,-0.00002135,0.00010364,-0.00398345,-0.00124939,0.00151510,-0
 .01564934,0.01437430,-0.00014647,0.00461245,0.00097769,-0.03883185,0.0
 0432324,-0.02122852,-0.00062445,0.00041185,-0.00010222,-0.00021738,0.0
 0012976,0.00040301,-0.00021547,0.00009346,0.00077950,-0.00075763,0.012
 16966,0.00898704,0.03887183,-0.01845805,0.01618658,-0.01257625,0.00161
 799,0.00254133,-0.00205905,0.00034091,-0.00007685,0.00016374,0.0021130
 9,0.00043166,-0.00254380,-0.01038210,-0.00644457,-0.01702611,-0.149934
 29,0.01869868,-0.08477362,-0.00026535,0.00018460,0.00094353,-0.0004943
 5,-0.00014551,0.00024518,-0.00021306,-0.00016527,-0.00001619,-0.000004
 64,-0.00071655,0.00069848,0.17595882,0.02612909,-0.01160022,0.01418492
 ,0.00225236,-0.00155209,-0.00154815,-0.00003811,-0.00000347,-0.0000886
 3,0.00054131,-0.00121399,-0.00278252,-0.01627420,-0.00005761,-0.016909
 79,0.01862422,-0.03876563,0.01747985,0.00033612,-0.00060215,0.00061368
 ,-0.00015069,-0.00011356,0.00024268,-0.00035185,0.00009895,-0.00011102
 ,-0.00092412,-0.00023183,-0.00030641,-0.03056939,0.05429962,-0.0076084
 5,0.00556146,0.00154648,-0.00220346,-0.00129735,0.00289672,0.00018315,
 -0.00012227,0.00020553,-0.00248899,-0.00287768,0.00169810,-0.02193750,
 -0.00838434,-0.01768016,-0.08481081,0.01754451,-0.10621301,0.00101923,
 0.00048224,-0.00012192,0.00024257,0.00024718,-0.00052696,-0.00010942,0
 .00005080,-0.00035912,0.00059477,-0.00012638,-0.00077005,0.11700000,-0
 .01109998,0.11938143,-0.02842995,0.02926947,-0.01257796,-0.09743855,0.
 06823237,0.01421483,0.00490737,0.00470060,0.00439709,0.00143225,0.0007
 6267,-0.00376154,0.00168811,-0.00023426,0.00119249,0.00050840,-0.00285
 576,-0.00628482,-0.00319187,0.00121946,-0.00129868,0.00265531,-0.00357
 734,0.00151513,0.00031021,0.00023662,0.00047232,-0.00091668,0.00064957
 ,0.00043973,-0.00046279,0.00037147,-0.00013479,0.39157669,0.02872789,-
 0.01849115,0.01421145,0.06638229,-0.18579761,0.00197305,0.00869213,-0.
 04913809,-0.01828437,-0.00383170,0.00235101,-0.00525017,-0.00003896,0.
 00186378,0.00080834,0.00141191,0.00292592,-0.00036548,-0.00015312,0.00
 411370,0.00241796,-0.00243170,-0.00066582,-0.00186627,-0.00007791,-0.0
 0080754,-0.00042214,0.00062541,-0.00166558,0.00023446,0.00069406,-0.00
 009604,0.00060055,-0.05048042,0.82125345,-0.01285033,0.01468001,-0.000
 87634,0.01329042,0.00357977,-0.06120583,0.00639328,-0.02174541,-0.0027
 7491,-0.00605689,-0.00126672,0.00032241,0.00128992,0.00063922,0.001616
 42,-0.00415165,-0.00406783,0.00047619,-0.00198459,0.00360827,-0.000910
 52,0.00208773,-0.00285978,-0.00077033,0.00031527,-0.00014923,0.0001009
 0,0.00042755,0.00025564,-0.00055089,0.00002622,0.00032073,0.00008964,0
 .17666166,0.28702099,0.45538437,-0.00034117,0.00174560,0.00003335,0.01
 207812,0.01214908,0.00139242,-0.00041235,0.00251260,0.00008994,0.00072
 277,-0.00033970,0.00125465,-0.00055331,-0.00021629,-0.00055627,-0.0002
 6032,0.00087966,0.00076480,0.00028383,-0.00147459,-0.00018581,-0.00064
 358,0.00056828,-0.00037674,-0.00014300,-0.00008403,-0.00012249,0.00010
 471,-0.00005888,-0.00003750,0.00005827,-0.00004447,0.00008166,-0.07207
 111,-0.10194307,-0.06326546,0.08822629,-0.00136250,-0.00062806,-0.0018
 0785,0.00989760,-0.05765974,-0.02894060,0.00290692,0.00117054,0.002640
 71,0.00127792,-0.00251808,0.00030912,-0.00069038,-0.00053216,-0.000846
 42,0.00020571,0.00022772,0.00060939,0.00004420,-0.00164372,-0.00060734
 ,0.00027716,0.00046767,0.00041512,0.00025454,0.00015738,0.00032449,-0.
 00023910,0.00049753,-0.00001570,-0.00044954,-0.00002482,-0.00037156,-0
 .08331897,-0.50557761,-0.29582478,0.11842599,0.57164957,-0.00151854,0.
 00088790,-0.00024801,0.00026962,-0.02698876,0.00422377,0.00028581,0.00
 229864,0.00232744,0.00206243,-0.00109250,0.00032335,-0.00079287,-0.000
 43518,-0.00094165,0.00042785,0.00119402,0.00033210,0.00057287,-0.00192
 429,-0.00081568,-0.00052216,0.00066729,-0.00000136,0.00004657,0.000030
 80,0.00000562,-0.00012748,0.00014045,0.00007366,-0.00012061,-0.0000202
 2,-0.00017619,-0.05397061,-0.31198237,-0.26038855,0.11487916,0.3761926
 3,0.31143383,0.00204871,0.00075339,0.00181931,-0.02930281,0.02732788,-
 0.01826205,-0.00095717,0.00171589,-0.00074541,0.00053695,-0.00004321,0
 .00069380,-0.00088212,-0.00019686,-0.00079652,-0.00075166,0.00215856,0
 .00057948,0.00052535,-0.00045973,0.00028153,-0.00182733,0.00154012,-0.
 00046793,-0.00027515,-0.00029991,-0.00030563,0.00026348,-0.00041717,-0
 .00001290,0.00018311,0.00004982,0.00022434,-0.16583418,0.01282667,-0.0
 9992276,-0.02653218,-0.04515846,-0.06327218,0.28248841,0.00084872,-0.0
 0310542,-0.00100817,0.03225199,-0.01042998,0.01902265,0.00265639,-0.00
 267955,0.00052074,0.00007157,-0.00049734,-0.00004256,0.00023204,-0.000
 09513,0.00019226,0.00111380,-0.00073215,0.00068816,-0.00034446,-0.0005
 3379,-0.00053347,0.00012985,-0.00174305,-0.00055785,0.00016298,0.00027
 524,0.00032661,-0.00019352,0.00037483,0.00000044,-0.00028241,-0.000158
 38,-0.00030063,0.01368453,-0.07149162,-0.00221573,-0.02966898,0.003089
 31,-0.03438922,-0.07975361,0.24841987,0.00186707,-0.00108985,0.0014602
 7,-0.01580473,0.01475125,0.00115070,-0.00027596,-0.00029499,0.00050401
 ,0.00075150,-0.00014212,0.00029284,-0.00058247,-0.00017984,-0.00067217
 ,0.00005702,0.00159503,0.00067013,0.00033925,-0.00063360,-0.00008627,-
 0.00117275,0.00066556,-0.00108546,-0.00007443,-0.00007493,-0.00019755,
 0.00009890,-0.00019364,0.00002705,0.00005843,-0.00001245,-0.00000244,-
 0.09948481,-0.00296204,-0.13107653,-0.05554164,-0.04782645,-0.05164410
 ,0.18108493,0.04099389,0.20539469,-0.00034066,0.00078656,-0.00010088,-
 0.00118636,-0.00003182,-0.00467408,0.00002311,0.00004953,0.00012716,0.
 00019754,-0.00032579,0.00013663,-0.00003839,-0.00009534,-0.00010728,-0
 .00021983,-0.00015654,0.00003933,0.00004777,0.00004487,-0.00006536,0.0
 0006637,0.00025714,0.00006542,0.00006151,0.00006905,0.00004868,-0.0000
 3240,0.00010015,-0.00001292,-0.00005728,0.00004794,-0.00005197,-0.0347
 2759,0.03960116,-0.01225445,-0.00051973,-0.00207430,0.00177677,-0.0596
 8573,0.05908963,-0.01132225,0.09641120,0.00029095,0.00030078,0.0002885
 4,-0.00148801,0.00135462,-0.00270264,0.00002245,-0.00059351,-0.0002295
 7,-0.00002953,0.00016527,0.00013066,-0.00011732,0.00004423,-0.00009482
 ,-0.00031528,0.00037072,0.00008916,0.00018081,0.00004401,0.00010446,-0
 .00019031,0.00012006,-0.00017453,-0.00005353,-0.00009579,-0.00011685,0
 .00010321,-0.00015727,-0.00000912,0.00011311,0.00002133,0.00009365,0.0
 2134155,0.00122394,0.01802585,-0.00245118,-0.00867746,-0.00457977,0.07
 995578,-0.16069238,-0.00459587,-0.09736194,0.16657160,-0.00034851,0.00
 071846,0.00028539,-0.00540043,-0.00144123,-0.00122173,0.00011370,-0.00
 020617,-0.00009946,0.00028466,-0.00012627,0.00003622,-0.00011824,-0.00
 007580,-0.00011008,-0.00004013,0.00022688,-0.00027661,0.00000262,-0.00
 001347,0.00014443,-0.00015814,0.00021360,0.00010860,-0.00001256,-0.000
 01053,0.00002901,-0.00001139,-0.00001177,0.00002441,-0.00001941,0.0000
 3714,0.00003196,-0.02137556,0.03386990,0.00057124,0.00158812,-0.004254
 29,-0.00450825,-0.00089969,-0.02269776,-0.02473789,0.02639486,-0.00622
 844,0.02972289||0.00009886,-0.00005179,0.00006142,-0.00008433,0.000020
 40,-0.00004347,-0.00005352,0.00010085,0.00000436,0.00008312,-0.0001087
 2,0.00001687,-0.00005913,-0.00005560,-0.00007762,0.00000830,0.00009065
 ,0.00005070,-0.00001196,0.00000363,-0.00000876,0.00001011,-0.00001135,
 0.00000336,-0.00000843,0.00001459,-0.00000026,0.00000811,0.00001039,0.
 00001192,-0.00001050,-0.00001255,-0.00001549,-0.00004507,-0.00021158,-
 0.00020272,-0.00000089,0.00023460,0.00013879,0.00019850,-0.00033643,0.
 00001890,-0.00013316,0.00031290,0.00004199|||@


 IT WAS A GAME, A VERY INTERESTING GAME ONE COULD
 PLAY.  WHENEVER ONE SOLVED ONE OF THE LITTLE PROBLEMS,
 ONE COULD WRITE A PAPER ABOUT IT.  IT WAS VERY EASY IN
 THOSE DAYS FOR ANY SECOND-RATE PHYSICIST TO DO
 FIRST-RATE WORK.  THERE HAS NOT BEEN SUCH A GLORIOUS
 TIME SINCE.  IT IS VERY DIFFICULT NOW FOR A FIRST-RATE
 PHYSICIST TO DO SECOND-RATE WORK.
     P.A.M. DIRAC, ON THE EARLY DAYS OF QUANTUM MECHANICS
                   DIRECTIONS IN PHYSICS, 1978, P. 7
 Job cpu time:       0 days  0 hours  0 minutes  5.0 seconds.
 File lengths (MBytes):  RWF=     14 Int=      0 D2E=      0 Chk=      2 Scr=      1
 Normal termination of Gaussian 09 at Fri Mar 18 11:44:43 2022.
