opt freq(GC)                                                            
Freq      RB3LYP                                                      STO-3G              
Number of atoms                            I               15
Info1-9                                    I   N=           9
          25          24        1002           0           0         100
           6          18        -502
Charge                                     I                0
Multiplicity                               I                1
Number of electrons                        I               64
Number of alpha electrons                  I               32
Number of beta electrons                   I               32
Number of basis functions                  I               51
Number of independent functions            I               51
Number of point charges in /Mol/           I                0
Number of translation vectors              I                0
Atomic numbers                             I   N=          15
           6           6           6           6           6           6
           1           1           1           1           1           6
           8           8           1
Nuclear charges                            R   N=          15
  6.00000000E+00  6.00000000E+00  6.00000000E+00  6.00000000E+00  6.00000000E+00
  6.00000000E+00  1.00000000E+00  1.00000000E+00  1.00000000E+00  1.00000000E+00
  1.00000000E+00  6.00000000E+00  8.00000000E+00  8.00000000E+00  1.00000000E+00
Current cartesian coordinates              R   N=          45
  1.02798228E+00  2.34847351E+00 -1.79057554E-05 -3.95106678E-01  8.30759897E-02
 -2.03845805E-05  8.67820020E-01 -2.27541642E+00 -6.60714146E-06  3.52653965E+00
 -2.35903644E+00  1.19058782E-05  4.93520910E+00 -9.61105586E-02  1.45792495E-05
  3.68486183E+00  2.25830309E+00 -1.53738167E-06  1.50997226E-02  4.16267520E+00
 -2.93458767E-05 -2.50878727E-01 -4.02445734E+00 -7.60065716E-06  4.50504175E+00
 -4.18964230E+00  2.20568056E-05  7.01013041E+00 -1.67740236E-01  2.87584349E-05
  4.78416687E+00  4.01895189E+00  1.59292172E-06 -3.28394979E+00  2.66200368E-01
 -4.43169610E-05 -4.57886337E+00  2.25585768E+00  3.99722418E-05 -4.41336368E+00
 -2.18284864E+00  2.99916757E-06 -6.30588210E+00 -1.73679676E+00  2.63672508E-05
Force Field                                I                0
Int Atom Types                             I   N=          15
           0           0           0           0           0           0
           0           0           0           0           0           0
           0           0           0
MM charges                                 R   N=          15
  0.00000000E+00  0.00000000E+00  0.00000000E+00  0.00000000E+00  0.00000000E+00
  0.00000000E+00  0.00000000E+00  0.00000000E+00  0.00000000E+00  0.00000000E+00
  0.00000000E+00  0.00000000E+00  0.00000000E+00  0.00000000E+00  0.00000000E+00
Integer atomic weights                     I   N=          15
          12          12          12          12          12          12
           1           1           1           1           1          12
          16          16           1
Real atomic weights                        R   N=          15
  1.20000000E+01  1.20000000E+01  1.20000000E+01  1.20000000E+01  1.20000000E+01
  1.20000000E+01  1.00782504E+00  1.00782504E+00  1.00782504E+00  1.00782504E+00
  1.00782504E+00  1.20000000E+01  1.59949146E+01  1.59949146E+01  1.00782504E+00
Atom fragment info                         I   N=          15
           0           0           0           0           0           0
           0           0           0           0           0           0
           0           0           0
Atom residue num                           I   N=          15
           0           0           0           0           0           0
           0           0           0           0           0           0
           0           0           0
Nuclear spins                              I   N=          15
           0           0           0           0           0           0
           1           1           1           1           1           0
           0           0           1
Nuclear ZEff                               R   N=          15
 -3.60000000E+00 -3.60000000E+00 -3.60000000E+00 -3.60000000E+00 -3.60000000E+00
 -3.60000000E+00 -1.00000000E+00 -1.00000000E+00 -1.00000000E+00 -1.00000000E+00
 -1.00000000E+00 -3.60000000E+00 -5.60000000E+00 -5.60000000E+00 -1.00000000E+00
Nuclear ZNuc                               R   N=          15
  6.00000000E+00  6.00000000E+00  6.00000000E+00  6.00000000E+00  6.00000000E+00
  6.00000000E+00  1.00000000E+00  1.00000000E+00  1.00000000E+00  1.00000000E+00
  1.00000000E+00  6.00000000E+00  8.00000000E+00  8.00000000E+00  1.00000000E+00
Nuclear QMom                               R   N=          15
  0.00000000E+00  0.00000000E+00  0.00000000E+00  0.00000000E+00  0.00000000E+00
  0.00000000E+00  0.00000000E+00  0.00000000E+00  0.00000000E+00  0.00000000E+00
  0.00000000E+00  0.00000000E+00  0.00000000E+00  0.00000000E+00  0.00000000E+00
Nuclear GFac                               R   N=          15
  0.00000000E+00  0.00000000E+00  0.00000000E+00  0.00000000E+00  0.00000000E+00
  0.00000000E+00  2.79284600E+00  2.79284600E+00  2.79284600E+00  2.79284600E+00
  2.79284600E+00  0.00000000E+00  0.00000000E+00  0.00000000E+00  2.79284600E+00
MicOpt                                     I   N=          15
          -1          -1          -1          -1          -1          -1
          -1          -1          -1          -1          -1          -1
          -1          -1          -1
Number of contracted shells                I               24
Number of primitive shells                 I               72
Pure/Cartesian d shells                    I                0
Pure/Cartesian f shells                    I                0
Highest angular momentum                   I                1
Largest degree of contraction              I                3
Shell types                                I   N=          24
           0          -1           0          -1           0          -1
           0          -1           0          -1           0          -1
           0           0           0           0           0           0
          -1           0          -1           0          -1           0
Number of primitives per shell             I   N=          24
           3           3           3           3           3           3
           3           3           3           3           3           3
           3           3           3           3           3           3
           3           3           3           3           3           3
Shell to atom map                          I   N=          24
           1           1           2           2           3           3
           4           4           5           5           6           6
           7           8           9          10          11          12
          12          13          13          14          14          15
Primitive exponents                        R   N=          72
  7.16168373E+01  1.30450963E+01  3.53051216E+00  2.94124936E+00  6.83483096E-01
  2.22289916E-01  7.16168373E+01  1.30450963E+01  3.53051216E+00  2.94124936E+00
  6.83483096E-01  2.22289916E-01  7.16168373E+01  1.30450963E+01  3.53051216E+00
  2.94124936E+00  6.83483096E-01  2.22289916E-01  7.16168373E+01  1.30450963E+01
  3.53051216E+00  2.94124936E+00  6.83483096E-01  2.22289916E-01  7.16168373E+01
  1.30450963E+01  3.53051216E+00  2.94124936E+00  6.83483096E-01  2.22289916E-01
  7.16168373E+01  1.30450963E+01  3.53051216E+00  2.94124936E+00  6.83483096E-01
  2.22289916E-01  3.42525091E+00  6.23913730E-01  1.68855404E-01  3.42525091E+00
  6.23913730E-01  1.68855404E-01  3.42525091E+00  6.23913730E-01  1.68855404E-01
  3.42525091E+00  6.23913730E-01  1.68855404E-01  3.42525091E+00  6.23913730E-01
  1.68855404E-01  7.16168373E+01  1.30450963E+01  3.53051216E+00  2.94124936E+00
  6.83483096E-01  2.22289916E-01  1.30709321E+02  2.38088661E+01  6.44360831E+00
  5.03315132E+00  1.16959612E+00  3.80388960E-01  1.30709321E+02  2.38088661E+01
  6.44360831E+00  5.03315132E+00  1.16959612E+00  3.80388960E-01  3.42525091E+00
  6.23913730E-01  1.68855404E-01
Contraction coefficients                   R   N=          72
  1.54328967E-01  5.35328142E-01  4.44634542E-01 -9.99672292E-02  3.99512826E-01
  7.00115469E-01  1.54328967E-01  5.35328142E-01  4.44634542E-01 -9.99672292E-02
  3.99512826E-01  7.00115469E-01  1.54328967E-01  5.35328142E-01  4.44634542E-01
 -9.99672292E-02  3.99512826E-01  7.00115469E-01  1.54328967E-01  5.35328142E-01
  4.44634542E-01 -9.99672292E-02  3.99512826E-01  7.00115469E-01  1.54328967E-01
  5.35328142E-01  4.44634542E-01 -9.99672292E-02  3.99512826E-01  7.00115469E-01
  1.54328967E-01  5.35328142E-01  4.44634542E-01 -9.99672292E-02  3.99512826E-01
  7.00115469E-01  1.54328967E-01  5.35328142E-01  4.44634542E-01  1.54328967E-01
  5.35328142E-01  4.44634542E-01  1.54328967E-01  5.35328142E-01  4.44634542E-01
  1.54328967E-01  5.35328142E-01  4.44634542E-01  1.54328967E-01  5.35328142E-01
  4.44634542E-01  1.54328967E-01  5.35328142E-01  4.44634542E-01 -9.99672292E-02
  3.99512826E-01  7.00115469E-01  1.54328967E-01  5.35328142E-01  4.44634542E-01
 -9.99672292E-02  3.99512826E-01  7.00115469E-01  1.54328967E-01  5.35328142E-01
  4.44634542E-01 -9.99672292E-02  3.99512826E-01  7.00115469E-01  1.54328967E-01
  5.35328142E-01  4.44634542E-01
P(S=P) Contraction coefficients            R   N=          72
  0.00000000E+00  0.00000000E+00  0.00000000E+00  1.55916275E-01  6.07683719E-01
  3.91957393E-01  0.00000000E+00  0.00000000E+00  0.00000000E+00  1.55916275E-01
  6.07683719E-01  3.91957393E-01  0.00000000E+00  0.00000000E+00  0.00000000E+00
  1.55916275E-01  6.07683719E-01  3.91957393E-01  0.00000000E+00  0.00000000E+00
  0.00000000E+00  1.55916275E-01  6.07683719E-01  3.91957393E-01  0.00000000E+00
  0.00000000E+00  0.00000000E+00  1.55916275E-01  6.07683719E-01  3.91957393E-01
  0.00000000E+00  0.00000000E+00  0.00000000E+00  1.55916275E-01  6.07683719E-01
  3.91957393E-01  0.00000000E+00  0.00000000E+00  0.00000000E+00  0.00000000E+00
  0.00000000E+00  0.00000000E+00  0.00000000E+00  0.00000000E+00  0.00000000E+00
  0.00000000E+00  0.00000000E+00  0.00000000E+00  0.00000000E+00  0.00000000E+00
  0.00000000E+00  0.00000000E+00  0.00000000E+00  0.00000000E+00  1.55916275E-01
  6.07683719E-01  3.91957393E-01  0.00000000E+00  0.00000000E+00  0.00000000E+00
  1.55916275E-01  6.07683719E-01  3.91957393E-01  0.00000000E+00  0.00000000E+00
  0.00000000E+00  1.55916275E-01  6.07683719E-01  3.91957393E-01  0.00000000E+00
  0.00000000E+00  0.00000000E+00
Coordinates of each shell                  R   N=          72
  1.02798228E+00  2.34847351E+00 -1.79057554E-05  1.02798228E+00  2.34847351E+00
 -1.79057554E-05 -3.95106678E-01  8.30759897E-02 -2.03845805E-05 -3.95106678E-01
  8.30759897E-02 -2.03845805E-05  8.67820020E-01 -2.27541642E+00 -6.60714146E-06
  8.67820020E-01 -2.27541642E+00 -6.60714146E-06  3.52653965E+00 -2.35903644E+00
  1.19058782E-05  3.52653965E+00 -2.35903644E+00  1.19058782E-05  4.93520910E+00
 -9.61105586E-02  1.45792495E-05  4.93520910E+00 -9.61105586E-02  1.45792495E-05
  3.68486183E+00  2.25830309E+00 -1.53738167E-06  3.68486183E+00  2.25830309E+00
 -1.53738167E-06  1.50997226E-02  4.16267520E+00 -2.93458767E-05 -2.50878727E-01
 -4.02445734E+00 -7.60065716E-06  4.50504175E+00 -4.18964230E+00  2.20568056E-05
  7.01013041E+00 -1.67740236E-01  2.87584349E-05  4.78416687E+00  4.01895189E+00
  1.59292172E-06 -3.28394979E+00  2.66200368E-01 -4.43169610E-05 -3.28394979E+00
  2.66200368E-01 -4.43169610E-05 -4.57886337E+00  2.25585768E+00  3.99722418E-05
 -4.57886337E+00  2.25585768E+00  3.99722418E-05 -4.41336368E+00 -2.18284864E+00
  2.99916757E-06 -4.41336368E+00 -2.18284864E+00  2.99916757E-06 -6.30588210E+00
 -1.73679676E+00  2.63672508E-05
Constraint Structure                       R   N=          45
  1.02798228E+00  2.34847351E+00 -1.79057554E-05 -3.95106678E-01  8.30759897E-02
 -2.03845805E-05  8.67820020E-01 -2.27541642E+00 -6.60714146E-06  3.52653965E+00
 -2.35903644E+00  1.19058782E-05  4.93520910E+00 -9.61105586E-02  1.45792495E-05
  3.68486183E+00  2.25830309E+00 -1.53738167E-06  1.50997226E-02  4.16267520E+00
 -2.93458767E-05 -2.50878727E-01 -4.02445734E+00 -7.60065716E-06  4.50504175E+00
 -4.18964230E+00  2.20568056E-05  7.01013041E+00 -1.67740236E-01  2.87584349E-05
  4.78416687E+00  4.01895189E+00  1.59292172E-06 -3.28394979E+00  2.66200368E-01
 -4.43169610E-05 -4.57886337E+00  2.25585768E+00  3.99722418E-05 -4.41336368E+00
 -2.18284864E+00  2.99916757E-06 -6.30588210E+00 -1.73679676E+00  2.63672508E-05
Num ILSW                                   I              100
ILSW                                       I   N=         100
           0           0           0           0           2           0
           0           0           0           0         402          -1
           0           0           0           0           2           0
           0           0           1           0           1           0
           1           0           0           0           0           0
           0           0      100000           0          -1           0
           0           0           0           0           0           0
           0           0           0           1           0           0
           0           0           1           0           0           0
           0           0           4          41           0           0
           0           0           5           0           0           0
           0           0           0           0           0           0
           0           0           0           0           0           0
           0           0           0           0           0           0
           0           0           0           0           0           0
           0           0           0           0           0           0
           0           0           0           0
Num RLSW                                   I               41
RLSW                                       R   N=          41
  8.00000000E-01  7.20000000E-01  1.00000000E+00  8.10000000E-01  2.00000000E-01
  0.00000000E+00  0.00000000E+00  1.00000000E+00  0.00000000E+00  0.00000000E+00
  0.00000000E+00  0.00000000E+00  1.00000000E+00  0.00000000E+00  0.00000000E+00
  0.00000000E+00  0.00000000E+00  1.00000000E+00  0.00000000E+00  0.00000000E+00
  0.00000000E+00  0.00000000E+00  1.00000000E+00  0.00000000E+00  0.00000000E+00
  0.00000000E+00  0.00000000E+00  1.00000000E+00  0.00000000E+00  0.00000000E+00
  0.00000000E+00  0.00000000E+00  1.00000000E+00  0.00000000E+00  0.00000000E+00
  0.00000000E+00  0.00000000E+00  0.00000000E+00  1.00000000E+00  1.00000000E+00
  0.00000000E+00
MxBond                                     I                3
NBond                                      I   N=          15
           3           3           3           3           3           3
           1           1           1           1           1           3
           1           2           1
IBond                                      I   N=          45
           2           6           7           1           3          12
           2           4           8           3           5           9
           4           6          10           1           5          11
           1           0           0           3           0           0
           4           0           0           5           0           0
           6           0           0           2          13          14
          12           0           0          12          15           0
          14           0           0
RBond                                      R   N=          45
  1.50000000E+00  1.50000000E+00  1.00000000E+00  1.50000000E+00  1.50000000E+00
  1.00000000E+00  1.50000000E+00  1.50000000E+00  1.00000000E+00  1.50000000E+00
  1.50000000E+00  1.00000000E+00  1.50000000E+00  1.50000000E+00  1.00000000E+00
  1.50000000E+00  1.50000000E+00  1.00000000E+00  1.00000000E+00  0.00000000E+00
  0.00000000E+00  1.00000000E+00  0.00000000E+00  0.00000000E+00  1.00000000E+00
  0.00000000E+00  0.00000000E+00  1.00000000E+00  0.00000000E+00  0.00000000E+00
  1.00000000E+00  0.00000000E+00  0.00000000E+00  1.00000000E+00  2.00000000E+00
  1.00000000E+00  2.00000000E+00  0.00000000E+00  0.00000000E+00  1.00000000E+00
  1.00000000E+00  0.00000000E+00  1.00000000E+00  0.00000000E+00  0.00000000E+00
Virial Ratio                               R      2.016648903724540E+00
SCF Energy                                 R     -4.153913823334048E+02
Total Energy                               R     -4.153913823334048E+02
RMS Force                                  R      1.603803414170022E-05
RMS Density                                R      3.264687693513763E-09
External E-field                           R   N=          35
  0.00000000E+00  0.00000000E+00  0.00000000E+00  0.00000000E+00  0.00000000E+00
  0.00000000E+00  0.00000000E+00  0.00000000E+00  0.00000000E+00  0.00000000E+00
  0.00000000E+00  0.00000000E+00  0.00000000E+00  0.00000000E+00  0.00000000E+00
  0.00000000E+00  0.00000000E+00  0.00000000E+00  0.00000000E+00  0.00000000E+00
  0.00000000E+00  0.00000000E+00  0.00000000E+00  0.00000000E+00  0.00000000E+00
  0.00000000E+00  0.00000000E+00  0.00000000E+00  0.00000000E+00  0.00000000E+00
  0.00000000E+00  0.00000000E+00  0.00000000E+00  0.00000000E+00  0.00000000E+00
IOpCl                                      I                0
IROHF                                      I                0
Alpha Orbital Energies                     R   N=          51
 -1.89304271E+01 -1.88691523E+01 -1.01032576E+01 -1.00250579E+01 -1.00170016E+01
 -1.00165960E+01 -1.00161467E+01 -1.00150949E+01 -1.00148902E+01 -1.01172892E+00
 -9.30692678E-01 -8.10349524E-01 -7.14045998E-01 -7.05371544E-01 -5.92300429E-01
 -5.67061237E-01 -5.19744186E-01 -4.69876538E-01 -4.29218456E-01 -4.04490125E-01
 -3.84282857E-01 -3.82791492E-01 -3.63433706E-01 -3.51038944E-01 -3.17338919E-01
 -3.04691178E-01 -3.04186914E-01 -2.74773296E-01 -2.01684879E-01 -1.98642260E-01
 -1.82556541E-01 -1.53281173E-01  4.51106014E-02  8.10765989E-02  1.41351432E-01
  2.53341883E-01  2.72960380E-01  3.30306980E-01  3.51695726E-01  3.73185961E-01
  3.99540193E-01  4.26225032E-01  4.41435651E-01  4.55220712E-01  5.32955648E-01
  5.68555375E-01  5.77141206E-01  5.83672497E-01  6.48702112E-01  7.47120005E-01
  7.81524590E-01
Alpha MO coefficients                      R   N=        2601
  6.45930020E-06  8.19592127E-06  8.89224552E-05 -2.38137162E-05  1.32359771E-09
 -2.71233547E-05  3.90870856E-04 -2.23011496E-04 -3.31402282E-04  5.92735304E-09
 -5.36935717E-06  6.56918897E-05  9.73765808E-05 -2.06368174E-04 -1.84829258E-09
  3.86608480E-06 -4.92005524E-05  3.64764334E-05  1.61802339E-05  7.28688579E-10
 -2.90758815E-07  6.43187990E-07 -6.29074788E-06  3.11293865E-06 -1.04128932E-10
  1.52162942E-06 -2.78778947E-05  1.84559254E-05  1.78537416E-08 -1.10050193E-10
 -3.17851998E-05 -4.18937116E-04  1.16655935E-05  1.28264720E-06  1.73337970E-06
  5.92365219E-04 -4.78556975E-03  1.94021088E-03  4.70205764E-03 -9.91334819E-08
  1.00135415E-03  2.39420211E-04 -5.09330916E-04 -4.45174772E-04  2.39957018E-08
  9.93535146E-01  2.85962135E-02 -1.68956965E-03  3.83872632E-03 -2.31874096E-08
 -6.35238006E-03 -7.42197310E-06 -2.92129973E-05  2.58861846E-06  1.97387518E-04
 -6.52245364E-09 -2.41926560E-05  1.66907997E-04 -4.40923104E-05  6.09259643E-04
  2.76685536E-08  1.58481841E-06  8.43426863E-05  4.49610669E-05  6.60169401E-05
 -6.06993805E-10  1.45746841E-06 -2.51123708E-05  1.64892917E-05 -6.96764392E-06
 -1.85327080E-10 -1.15432303E-07 -6.76451713E-07 -2.40533620E-06 -3.69716020E-06
 -1.41592137E-10  5.43822974E-07  1.32872667E-06 -3.73006125E-07 -1.88428813E-05
  7.38444751E-10 -2.30042940E-04 -2.48765465E-05  3.50025701E-07  5.50347642E-07
  6.96579700E-06  6.82742078E-04 -7.82466897E-03  4.04604256E-03 -6.17106954E-03
 -2.72599258E-07  9.93593297E-01  2.87347121E-02  3.12441665E-03 -4.85654761E-03
 -2.04269896E-07 -1.08535073E-03  2.71709936E-04 -4.26584256E-04  3.63231994E-04
  2.51380549E-08 -1.51846289E-04 -1.97211028E-04  3.70869893E-04 -9.47865792E-06
  2.30253050E-05  3.17006808E-09 -5.77485094E-03 -7.42481004E-03  5.52844086E-03
 -5.13904147E-04  1.39729355E-08 -9.06923412E-05  2.42197763E-04 -1.22510487E-04
 -6.91555621E-05  2.53308758E-09 -8.00458315E-05 -6.28025548E-05  4.46186397E-05
 -5.09085861E-05  2.27770064E-10 -3.24244122E-05  1.04372884E-05  2.23577122E-05
 -2.51217613E-07  2.74816470E-10 -1.00747516E-04 -1.16330213E-04  8.57175329E-05
  5.26697440E-05  9.31211148E-11 -4.02371640E-04 -2.49757898E-04 -8.26647106E-06
 -1.10028764E-05 -5.11264264E-06  9.91196351E-01  3.80688549E-02  9.80918924E-05
  5.51545237E-04  2.90106479E-07  5.52816963E-04 -7.45576496E-03 -1.74432681E-03
  2.67015978E-03  8.03641560E-08  6.20424727E-04 -5.34389731E-03 -1.95662480E-03
 -3.35157427E-03  4.64590906E-08 -1.69730699E-03 -4.05467222E-02 -1.10510578E-02
  3.18035990E-03  5.43781724E-03  5.46416930E-09  9.88690561E-01  4.42741103E-02
  1.63390187E-03  8.35473491E-05 -2.57564150E-09 -4.29571049E-02 -1.10875476E-02
  2.79736218E-03 -5.60168357E-03  3.20389064E-08 -3.17508416E-05  7.83836703E-04
 -3.63083526E-04  1.07187419E-04 -2.95057053E-09 -3.63898167E-03 -3.40421612E-04
  2.49804621E-04 -1.09145142E-05  1.73109108E-09  1.17337752E-05  7.76388750E-04
 -3.62727965E-04 -9.54803504E-05 -1.83445884E-09  5.01433980E-04  5.07035367E-04
 -9.55437501E-05 -2.15752414E-05 -9.31008277E-05  7.28373367E-03 -7.24702643E-03
 -5.65914805E-03  3.81501067E-04 -5.53949086E-08 -2.76357908E-05  1.82265931E-04
  3.40260280E-04  6.56284178E-05  7.15078451E-09 -1.74909793E-05  2.97130268E-04
  5.84727228E-05  1.52309405E-04 -2.04927168E-09 -1.47361661E-04  5.40670349E-02
  4.53996942E-03  1.43208416E-03 -1.90545895E-04  9.24516898E-09  1.13131746E-02
 -1.42398020E-03 -8.12380553E-04  4.02214038E-04 -6.32254491E-09  1.22537891E-01
  7.64768046E-03  1.55772840E-03  1.77317212E-04  1.12871279E-08 -2.07263272E-01
 -1.91860068E-02 -2.08892291E-03 -5.43762864E-03  3.56354829E-09  9.38249135E-01
  4.54754921E-02 -2.67898180E-03  2.98990786E-05 -1.95193831E-08 -1.97038490E-01
 -1.81024776E-02 -2.13941868E-03  5.57984961E-03 -3.44805019E-08 -6.04593179E-04
 -1.22057936E-03  2.06108167E-03 -8.59001993E-03  1.95299390E-03  1.00854329E-04
 -5.76363182E-05 -5.95491837E-05 -2.27616858E-06 -4.51664499E-10 -7.61719872E-07
  3.04169672E-06  5.46698700E-06  5.79980891E-06  9.98143502E-11 -1.49304653E-06
  1.34740459E-05  2.89627067E-06 -9.59340817E-06 -3.69180893E-11 -2.56908857E-06
 -6.74652206E-02 -3.41440528E-03 -1.56592300E-04  1.77375753E-04 -1.24180409E-09
  3.93581802E-02 -6.54337560E-03 -2.62974262E-03  5.62782483E-03 -3.18349835E-08
  9.53946101E-01  4.37249712E-02  2.06674322E-03  9.48073350E-04  2.02677112E-08
 -1.96783356E-01 -1.61804649E-02  6.65719813E-03  3.03353140E-04  4.49858715E-08
 -1.57099221E-01 -5.19065125E-03 -4.16638663E-04 -1.31370396E-03  1.38737662E-09
  3.77991331E-02  3.58601679E-03  1.04785800E-04 -7.15579760E-04  3.75712868E-09
  5.57104585E-04 -8.64385860E-03  1.90445138E-03  1.31286300E-03 -4.23849466E-04
  3.52686475E-04 -7.11076414E-05 -1.16534693E-04 -5.42149766E-05  4.02965520E-10
  6.90142069E-06 -3.85143026E-05 -2.94210213E-05  1.19349729E-06  7.47216877E-10
 -5.44445677E-06  7.18844009E-05 -1.67719909E-05 -5.06763516E-05 -4.20399355E-10
 -1.85038431E-05  9.33535944E-01  4.38127126E-02  2.61675310E-03 -1.10603543E-03
  1.87694274E-08  4.16694915E-02 -7.45287680E-03 -3.35078505E-03 -4.62903149E-03
 -8.03793452E-09  5.57760354E-02  2.41452777E-03  1.87699565E-04 -3.72759205E-06
  1.77758364E-09 -2.41743522E-04  4.06200199E-04  8.57418450E-04  4.27825641E-04
  4.32240890E-09 -1.24836716E-01 -2.42393359E-03 -8.17944216E-04  1.69237302E-03
 -1.08229152E-08 -2.98042668E-01 -2.08290665E-02  6.50129222E-03 -3.98320322E-04
  3.86906829E-08 -8.47988315E-03 -5.56986330E-04 -4.62668113E-05  9.86101429E-04
  2.81634318E-03  4.84871656E-04 -7.55679414E-05 -1.02834791E-04 -2.84177822E-05
 -1.17176096E-09 -1.31722304E-05  8.44938763E-05  4.88409370E-05  1.88211700E-05
 -1.59595374E-09  1.05963594E-05 -5.81463511E-05 -6.28814287E-05 -2.07725338E-05
  8.64565178E-10 -1.42302301E-05 -2.10527056E-01 -3.40178353E-03  3.79088118E-03
  1.72281245E-04  2.29514120E-08 -1.62220288E-03  4.10506144E-04  2.30611234E-04
  1.89957384E-03 -4.03308894E-09  1.61024571E-01  4.83702304E-04 -4.31945861E-03
  3.54876429E-04 -2.90582455E-08  7.13465772E-01  2.98684333E-02  4.23680956E-04
  7.37485963E-04 -3.24465535E-09  1.56970516E-02 -5.78842406E-05  4.88301856E-04
  7.24476884E-03 -1.86771594E-08 -6.34365255E-01 -2.61532446E-02 -8.32455540E-04
  8.37771026E-04 -1.22747267E-08  1.73758350E-03 -1.28268807E-03 -6.36943791E-03
 -1.24460435E-04  5.64308213E-03 -5.22714160E-05  1.32012692E-05 -2.85989320E-07
  7.97027022E-05  5.56277389E-10  4.30380930E-06 -4.01487279E-05 -1.45550665E-05
  1.49121860E-05  1.37525743E-09 -9.96396205E-07  2.13730063E-05 -1.22286208E-05
  1.32263322E-05 -5.42157055E-10 -5.31149526E-06  2.37482926E-01  4.10377351E-03
 -4.08223218E-03  1.27644022E-04 -2.56500373E-08  1.81202858E-02 -2.48593048E-03
 -1.22343516E-03 -3.68327385E-04 -6.77100773E-09  1.59421790E-01  1.10670446E-03
 -3.84433500E-03  4.20709283E-05 -2.46965589E-08  6.24980178E-01  2.41947344E-02
 -2.10409568E-04 -5.66392503E-04 -3.03511523E-09  2.45954005E-01 -1.04381153E-03
  3.85452233E-03 -3.76121556E-04  2.76552779E-08  6.70680395E-01  2.55000656E-02
  2.59637332E-04  4.97412321E-04  4.36817848E-09 -2.11669057E-03 -1.42756369E-03
 -5.68321707E-03 -2.06508230E-03 -6.07314640E-03  3.62101864E-04 -1.61146336E-04
 -1.46311695E-04 -2.24742800E-05 -1.12127291E-09 -1.05045531E-06  1.36006307E-05
  3.27571007E-06 -1.29926063E-06 -1.25121304E-10  5.30580940E-06 -1.77999926E-05
 -4.02852297E-05 -7.33534541E-06  3.37526849E-10 -1.33631974E-05 -5.20764605E-03
  1.25363979E-02 -5.02508955E-03 -4.54174010E-03  2.37364481E-08 -2.11969293E-02
  5.08324176E-02 -2.70417149E-02 -9.97991558E-04 -1.19337510E-07 -5.95190300E-03
  1.37841136E-02 -6.22552656E-03  4.84270947E-03 -9.51495750E-09 -1.03524763E-03
  2.76094975E-03 -1.42715822E-03  4.13764635E-04 -1.17225623E-08 -5.42045842E-04
  1.24138180E-03 -5.47835655E-04  5.08095808E-06 -3.59702643E-09 -9.74342046E-04
  2.43982082E-03 -1.24915368E-03 -3.10875421E-04 -7.13063983E-09  4.07522391E-03
  6.61664583E-03  2.23475259E-04  1.33934619E-04  2.27541083E-04 -1.27273671E-01
  3.06644619E-01 -8.88605006E-02  5.89842732E-03  5.26509626E-06 -1.26971428E-01
  4.32242131E-01  6.33884541E-02 -1.16392277E-01 -4.24019535E-06 -1.65510247E-01
  5.84973429E-01 -4.10938579E-02  1.27018019E-01 -7.70760246E-07  1.02420582E-01
 -5.48975571E-03  1.23522707E-02 -5.17943479E-03 -1.95035446E-03  5.21537309E-08
 -6.02394126E-03  1.74367920E-02 -8.19053383E-03  1.20370995E-02 -4.46614739E-08
  2.21228727E-03 -4.43777053E-03  3.74527786E-03  8.96613293E-04 -7.11017249E-09
  8.32255530E-05 -4.66115427E-04  4.97173439E-04  2.10111373E-04  5.89932065E-09
 -3.42626594E-04  8.14042290E-04 -2.99997731E-04  3.32877660E-04 -2.42683730E-09
 -1.11144349E-03  2.89043636E-03 -1.42657648E-03 -1.57759567E-04 -9.72264105E-09
  6.21995395E-03 -6.13648098E-03 -1.86017266E-05  1.02584206E-04  3.39646453E-04
 -4.95243452E-02  1.14757138E-01 -4.33991113E-02  2.04200704E-01  4.01189372E-06
 -1.74357932E-01  6.12575447E-01  8.68498852E-02 -1.22515038E-01 -5.52015947E-06
  1.56346834E-01 -5.69129996E-01  5.41434682E-02 -7.76905063E-02  6.16984552E-07
 -1.06997410E-01 -1.05293029E-01  2.66718659E-01  2.61904039E-02 -5.70014898E-02
  2.81925653E-07 -1.10508412E-01  2.81229179E-01  5.82041305E-02 -2.06091826E-03
  2.72435725E-07 -1.05586005E-01  2.67721303E-01  2.98731293E-02  5.51801940E-02
  1.01119074E-07 -1.02662336E-01  2.59384649E-01 -3.02093408E-02  5.34716067E-02
 -3.87018027E-07 -1.01909578E-01  2.57937850E-01 -6.06135623E-02  1.98704377E-03
 -4.22243283E-07 -1.02473726E-01  2.58908625E-01 -3.37964029E-02 -5.15442415E-02
 -1.07821096E-08  4.63630122E-02  4.69022178E-02  4.60664727E-02  4.58784200E-02
  4.58928845E-02 -1.38737534E-02  4.05079053E-02  6.06693010E-02 -1.35260191E-02
 -3.99183085E-07  1.76151624E-02 -6.39783699E-02  2.27302407E-03  1.22799886E-02
  4.62218419E-07  1.10823908E-02 -4.23650618E-02  2.17675009E-02 -4.67868545E-03
 -1.59292734E-07 -1.79087457E-02 -5.46356609E-02  1.48050575E-01 -9.92509199E-02
 -5.76923710E-02 -5.21932140E-07 -1.46182763E-01  3.95429435E-01 -8.29967559E-03
 -5.73422339E-03 -2.64737831E-07 -6.52252707E-02  1.76681912E-01 -9.15120752E-02
  6.33159389E-02 -7.48842112E-07  7.30808789E-02 -1.95900362E-01 -8.11077540E-02
 -6.02313102E-02 -3.37934014E-07  1.41980475E-01 -3.81860634E-01  2.65767580E-02
 -5.35821120E-03  2.13947093E-07  8.23846441E-02 -2.20859052E-01 -7.13206116E-02
  6.43604687E-02 -7.04888804E-07  3.98567935E-02  4.80404196E-02 -5.08447693E-02
 -9.97007367E-02 -5.72724332E-02 -4.59541639E-02  1.35999561E-01  1.27918694E-01
 -3.26231015E-02 -5.18100285E-07  2.97237015E-02 -1.12681251E-01  1.67573736E-02
  1.43091853E-02  5.67445650E-07  1.85660220E-02 -7.38734129E-02  6.49853479E-02
  4.55041165E-03 -7.42735694E-07 -4.95115647E-02 -1.30898427E-01  3.53763766E-01
  6.06270319E-02  9.22413617E-03  3.04719667E-07 -6.31920608E-03  1.70647490E-02
  5.24650345E-03  1.31519273E-01 -3.65513472E-07  1.25117697E-01 -3.38251334E-01
 -6.75351981E-02  1.93342464E-02 -5.94037990E-07  1.30621910E-01 -3.52625620E-01
  6.19538972E-02  1.12836519E-02  4.35259755E-07  5.98570555E-03 -1.62352125E-02
  5.15336652E-03  1.28109800E-01 -3.53267845E-07 -1.24438476E-01  3.35909379E-01
 -6.82996755E-02  2.03187869E-02 -4.29212118E-07  9.30879435E-02 -8.95426351E-02