 Entering Link 1 = C:\G09W\l1.exe PID=     12684.
  
 Copyright (c) 1988,1990,1992,1993,1995,1998,2003,2009,2013,
            Gaussian, Inc.  All Rights Reserved.
  
 This is part of the Gaussian(R) 09 program.  It is based on
 the Gaussian(R) 03 system (copyright 2003, Gaussian, Inc.),
 the Gaussian(R) 98 system (copyright 1998, Gaussian, Inc.),
 the Gaussian(R) 94 system (copyright 1995, Gaussian, Inc.),
 the Gaussian 92(TM) system (copyright 1992, Gaussian, Inc.),
 the Gaussian 90(TM) system (copyright 1990, Gaussian, Inc.),
 the Gaussian 88(TM) system (copyright 1988, Gaussian, Inc.),
 the Gaussian 86(TM) system (copyright 1986, Carnegie Mellon
 University), and the Gaussian 82(TM) system (copyright 1983,
 Carnegie Mellon University). Gaussian is a federally registered
 trademark of Gaussian, Inc.
  
 This software contains proprietary and confidential information,
 including trade secrets, belonging to Gaussian, Inc.
  
 This software is provided under written license and may be
 used, copied, transmitted, or stored only in accord with that
 written license.
  
 The following legend is applicable only to US Government
 contracts under FAR:
  
                    RESTRICTED RIGHTS LEGEND
  
 Use, reproduction and disclosure by the US Government is
 subject to restrictions as set forth in subparagraphs (a)
 and (c) of the Commercial Computer Software - Restricted
 Rights clause in FAR 52.227-19.
  
 Gaussian, Inc.
 340 Quinnipiac St., Bldg. 40, Wallingford CT 06492
  
  
 ---------------------------------------------------------------
 Warning -- This program may not be used in any manner that
 competes with the business of Gaussian, Inc. or will provide
 assistance to any competitor of Gaussian, Inc.  The licensee
 of this program is prohibited from giving any competitor of
 Gaussian, Inc. access to this program.  By using this program,
 the user acknowledges that Gaussian, Inc. is engaged in the
 business of creating and licensing software in the field of
 computational chemistry and represents and warrants to the
 licensee that it is not a competitor of Gaussian, Inc. and that
 it will not use this program in any manner prohibited above.
 ---------------------------------------------------------------
  

 Cite this work as:
 Gaussian 09, Revision D.01,
 M. J. Frisch, G. W. Trucks, H. B. Schlegel, G. E. Scuseria, 
 M. A. Robb, J. R. Cheeseman, G. Scalmani, V. Barone, B. Mennucci, 
 G. A. Petersson, H. Nakatsuji, M. Caricato, X. Li, H. P. Hratchian, 
 A. F. Izmaylov, J. Bloino, G. Zheng, J. L. Sonnenberg, M. Hada, 
 M. Ehara, K. Toyota, R. Fukuda, J. Hasegawa, M. Ishida, T. Nakajima, 
 Y. Honda, O. Kitao, H. Nakai, T. Vreven, J. A. Montgomery, Jr., 
 J. E. Peralta, F. Ogliaro, M. Bearpark, J. J. Heyd, E. Brothers, 
 K. N. Kudin, V. N. Staroverov, T. Keith, R. Kobayashi, J. Normand, 
 K. Raghavachari, A. Rendell, J. C. Burant, S. S. Iyengar, J. Tomasi, 
 M. Cossi, N. Rega, J. M. Millam, M. Klene, J. E. Knox, J. B. Cross, 
 V. Bakken, C. Adamo, J. Jaramillo, R. Gomperts, R. E. Stratmann, 
 O. Yazyev, A. J. Austin, R. Cammi, C. Pomelli, J. W. Ochterski, 
 R. L. Martin, K. Morokuma, V. G. Zakrzewski, G. A. Voth, 
 P. Salvador, J. J. Dannenberg, S. Dapprich, A. D. Daniels, 
 O. Farkas, J. B. Foresman, J. V. Ortiz, J. Cioslowski, 
 and D. J. Fox, Gaussian, Inc., Wallingford CT, 2013.
 
 ******************************************
 Gaussian 09:  IA32W-G09RevD.01 24-Apr-2013
                27-Mar-2022 
 ******************************************
 %nprocshared=4
 Will use up to    4 processors via shared memory.
 %mem=1GB
 %chk=D:\mindmap\gaussian\calculate\opt_freq\bencooh\3TO-3G.chk
 -----------------------
 # opt freq b3lyp/sto-3g
 -----------------------
 1/14=-1,18=20,19=15,26=3,38=1/1,3;
 2/9=110,12=2,17=6,18=5,40=1/2;
 3/6=3,11=2,16=1,25=1,30=1,71=1,74=-5/1,2,3;
 4//1;
 5/5=2,38=5/2;
 6/7=2,8=2,9=2,10=2,28=1/1;
 7//1,2,3,16;
 1/14=-1,18=20,19=15,26=3/3(2);
 2/9=110/2;
 99//99;
 2/9=110/2;
 3/6=3,11=2,16=1,25=1,30=1,71=1,74=-5/1,2,3;
 4/5=5,16=3,69=1/1;
 5/5=2,38=5/2;
 7//1,2,3,16;
 1/14=-1,18=20,19=15,26=3/3(-5);
 2/9=110/2;
 6/7=2,8=2,9=2,10=2,19=2,28=1/1;
 99/9=1/99;
 ------------
 opt freq(GC)
 ------------
 Symbolic Z-matrix:
 Charge =  0 Multiplicity = 1
 C                    -2.51963  -1.01958  -0.85514 
 C                    -1.43138  -1.19545   0. 
 C                    -1.04159  -0.16406   0.85412 
 C                    -1.73943   1.04434   0.8525 
 C                    -2.82711   1.22027  -0.0028 
 C                    -3.21751   0.18811  -0.85641 
 H                    -2.82706  -1.83302  -1.52814 
 H                    -0.18422  -0.30284   1.52862 
 H                    -1.43187   1.85743   1.52598 
 H                    -3.37729   2.17252  -0.00432 
 H                    -4.07513   0.32697  -1.53045 
 C                    -0.66183  -2.52939   0.00184 
 O                    -1.01001  -3.4627   -0.7671 
 O                     0.45224  -2.70808   0.88037 
 H                     0.81874  -3.58696   0.75846 
 

 GradGradGradGradGradGradGradGradGradGradGradGradGradGradGradGradGradGrad
 Berny optimization.
 Initialization pass.
                           ----------------------------
                           !    Initial Parameters    !
                           ! (Angstroms and Degrees)  !
 --------------------------                            --------------------------
 ! Name  Definition              Value          Derivative Info.                !
 --------------------------------------------------------------------------------
 ! R1    R(1,2)                  1.3952         estimate D2E/DX2                !
 ! R2    R(1,6)                  1.3948         estimate D2E/DX2                !
 ! R3    R(1,7)                  1.0996         estimate D2E/DX2                !
 ! R4    R(2,3)                  1.3947         estimate D2E/DX2                !
 ! R5    R(2,12)                 1.54           estimate D2E/DX2                !
 ! R6    R(3,4)                  1.3954         estimate D2E/DX2                !
 ! R7    R(3,8)                  1.0997         estimate D2E/DX2                !
 ! R8    R(4,5)                  1.3948         estimate D2E/DX2                !
 ! R9    R(4,9)                  1.0997         estimate D2E/DX2                !
 ! R10   R(5,6)                  1.3951         estimate D2E/DX2                !
 ! R11   R(5,10)                 1.0998         estimate D2E/DX2                !
 ! R12   R(6,11)                 1.0996         estimate D2E/DX2                !
 ! R13   R(12,13)                1.2584         estimate D2E/DX2                !
 ! R14   R(12,14)                1.43           estimate D2E/DX2                !
 ! R15   R(14,15)                0.96           estimate D2E/DX2                !
 ! A1    A(2,1,6)              119.9985         estimate D2E/DX2                !
 ! A2    A(2,1,7)              119.9972         estimate D2E/DX2                !
 ! A3    A(6,1,7)              120.0043         estimate D2E/DX2                !
 ! A4    A(1,2,3)              120.0086         estimate D2E/DX2                !
 ! A5    A(1,2,12)             119.9808         estimate D2E/DX2                !
 ! A6    A(3,2,12)             120.0105         estimate D2E/DX2                !
 ! A7    A(2,3,4)              119.9942         estimate D2E/DX2                !
 ! A8    A(2,3,8)              120.0128         estimate D2E/DX2                !
 ! A9    A(4,3,8)              119.993          estimate D2E/DX2                !
 ! A10   A(3,4,5)              119.994          estimate D2E/DX2                !
 ! A11   A(3,4,9)              119.9811         estimate D2E/DX2                !
 ! A12   A(5,4,9)              120.0249         estimate D2E/DX2                !
 ! A13   A(4,5,6)              120.0047         estimate D2E/DX2                !
 ! A14   A(4,5,10)             120.0113         estimate D2E/DX2                !
 ! A15   A(6,5,10)             119.984          estimate D2E/DX2                !
 ! A16   A(1,6,5)              120.0            estimate D2E/DX2                !
 ! A17   A(1,6,11)             120.008          estimate D2E/DX2                !
 ! A18   A(5,6,11)             119.992          estimate D2E/DX2                !
 ! A19   A(2,12,13)            120.2269         estimate D2E/DX2                !
 ! A20   A(2,12,14)            119.8865         estimate D2E/DX2                !
 ! A21   A(13,12,14)           119.8865         estimate D2E/DX2                !
 ! A22   A(12,14,15)           109.5            estimate D2E/DX2                !
 ! D1    D(6,1,2,3)              0.0323         estimate D2E/DX2                !
 ! D2    D(6,1,2,12)           179.9532         estimate D2E/DX2                !
 ! D3    D(7,1,2,3)           -179.9729         estimate D2E/DX2                !
 ! D4    D(7,1,2,12)            -0.052          estimate D2E/DX2                !
 ! D5    D(2,1,6,5)              0.0149         estimate D2E/DX2                !
 ! D6    D(2,1,6,11)           179.9892         estimate D2E/DX2                !
 ! D7    D(7,1,6,5)           -179.9798         estimate D2E/DX2                !
 ! D8    D(7,1,6,11)            -0.0055         estimate D2E/DX2                !
 ! D9    D(1,2,3,4)             -0.0568         estimate D2E/DX2                !
 ! D10   D(1,2,3,8)            179.9619         estimate D2E/DX2                !
 ! D11   D(12,2,3,4)          -179.9777         estimate D2E/DX2                !
 ! D12   D(12,2,3,8)             0.041          estimate D2E/DX2                !
 ! D13   D(1,2,12,13)            0.0791         estimate D2E/DX2                !
 ! D14   D(1,2,12,14)         -179.9209         estimate D2E/DX2                !
 ! D15   D(3,2,12,13)          180.0            estimate D2E/DX2                !
 ! D16   D(3,2,12,14)            0.0            estimate D2E/DX2                !
 ! D17   D(2,3,4,5)              0.0341         estimate D2E/DX2                !
 ! D18   D(2,3,4,9)           -179.9964         estimate D2E/DX2                !
 ! D19   D(8,3,4,5)           -179.9846         estimate D2E/DX2                !
 ! D20   D(8,3,4,9)             -0.0151         estimate D2E/DX2                !
 ! D21   D(3,4,5,6)              0.0131         estimate D2E/DX2                !
 ! D22   D(3,4,5,10)          -179.9995         estimate D2E/DX2                !
 ! D23   D(9,4,5,6)           -179.9563         estimate D2E/DX2                !
 ! D24   D(9,4,5,10)             0.0311         estimate D2E/DX2                !
 ! D25   D(4,5,6,1)             -0.0376         estimate D2E/DX2                !
 ! D26   D(4,5,6,11)           179.9881         estimate D2E/DX2                !
 ! D27   D(10,5,6,1)           179.975          estimate D2E/DX2                !
 ! D28   D(10,5,6,11)            0.0007         estimate D2E/DX2                !
 ! D29   D(2,12,14,15)        -179.9538         estimate D2E/DX2                !
 ! D30   D(13,12,14,15)          0.0462         estimate D2E/DX2                !
 --------------------------------------------------------------------------------
 Trust Radius=3.00D-01 FncErr=1.00D-07 GrdErr=1.00D-06
 Number of steps in this run=     77 maximum allowed number of steps=    100.
 GradGradGradGradGradGradGradGradGradGradGradGradGradGradGradGradGradGrad

                          Input orientation:                          
 ---------------------------------------------------------------------
 Center     Atomic      Atomic             Coordinates (Angstroms)
 Number     Number       Type             X           Y           Z
 ---------------------------------------------------------------------
      1          6           0       -2.519629   -1.019575   -0.855135
      2          6           0       -1.431382   -1.195454    0.000000
      3          6           0       -1.041587   -0.164062    0.854115
      4          6           0       -1.739428    1.044339    0.852496
      5          6           0       -2.827110    1.220273   -0.002800
      6          6           0       -3.217505    0.188115   -0.856411
      7          1           0       -2.827062   -1.833023   -1.528136
      8          1           0       -0.184218   -0.302841    1.528619
      9          1           0       -1.431868    1.857432    1.525982
     10          1           0       -3.377289    2.172520   -0.004317
     11          1           0       -4.075127    0.326968   -1.530453
     12          6           0       -0.661829   -2.529390    0.001842
     13          8           0       -1.010015   -3.462696   -0.767104
     14          8           0        0.452244   -2.708083    0.880369
     15          1           0        0.818737   -3.586958    0.758461
 ---------------------------------------------------------------------
                    Distance matrix (angstroms):
                    1          2          3          4          5
     1  C    0.000000
     2  C    1.395160   0.000000
     3  C    2.416205   1.394712   0.000000
     4  C    2.790065   2.416260   1.395427   0.000000
     5  C    2.416183   2.789946   2.416356   1.394825   0.000000
     6  C    1.394829   2.416183   2.790080   2.416236   1.395138
     7  H    1.099610   2.165553   3.412986   3.889675   3.413102
     8  H    3.413229   2.165375   1.099680   2.165806   3.413209
     9  H    3.889745   3.413024   2.165678   1.099680   2.165606
    10  H    3.413055   3.889707   3.413506   2.165528   1.099761
    11  H    2.165365   3.413128   3.889684   3.412999   2.165471
    12  C    2.542709   1.540000   2.542708   3.828364   4.329946
    13  O    2.873243   2.430306   3.675641   4.844431   5.080964
    14  O    3.833414   2.571214   2.950299   4.345673   5.192892
    15  H    4.509971   3.370102   3.896944   5.291688   6.081216
                    6          7          8          9         10
     6  C    0.000000
     7  H    2.165331   0.000000
     8  H    3.889760   4.320860   0.000000
     9  H    3.413344   4.989355   2.494678   0.000000
    10  H    2.165516   4.320781   4.321228   2.495147   0.000000
    11  H    1.099604   2.494641   4.989364   4.320988   2.494420
    12  C    3.827912   2.741166   2.741656   4.707459   5.429707
    13  O    4.267249   2.556690   3.992113   5.808611   6.159666
    14  O    4.987126   4.161787   2.571089   4.981026   6.266440
    15  H    5.757624   4.647221   3.519159   5.941018   7.166593
                   11         12         13         14         15
    11  H    0.000000
    12  C    4.707155   0.000000
    13  O    4.933474   1.258400   0.000000
    14  O    5.959923   1.430000   2.328477   0.000000
    15  H    6.671420   1.970533   2.384769   0.960000   0.000000
 Stoichiometry    C7H6O2
 Framework group  C1[X(C7H6O2)]
 Deg. of freedom    39
 Full point group                 C1      NOp   1
 Largest Abelian subgroup         C1      NOp   1
 Largest concise Abelian subgroup C1      NOp   1
                         Standard orientation:                         
 ---------------------------------------------------------------------
 Center     Atomic      Atomic             Coordinates (Angstroms)
 Number     Number       Type             X           Y           Z
 ---------------------------------------------------------------------
      1          6           0        0.568746    1.219012    0.000106
      2          6           0       -0.183215    0.043842   -0.000667
      3          6           0        0.458139   -1.194660   -0.000264
      4          6           0        1.852111   -1.258373   -0.000288
      5          6           0        2.603826   -0.083442    0.000005
      6          6           0        1.962122    1.155358    0.000598
      7          1           0        0.062899    2.195364    0.000238
      8          1           0       -0.134497   -2.120985   -0.000239
      9          1           0        2.357574   -2.235001   -0.000030
     10          1           0        3.702456   -0.133323   -0.000022
     11          1           0        2.554939    2.081477    0.001027
     12          6           0       -1.721588    0.114596   -0.000122
     13          8           0       -2.304476    1.229859   -0.000482
     14          8           0       -2.490344   -1.091187    0.000797
     15          1           0       -3.425665   -0.874911    0.000308
 ---------------------------------------------------------------------
 Rotational constants (GHZ):      3.7991396      1.1674383      0.8930216
 Standard basis: STO-3G (5D, 7F)
 There are    51 symmetry adapted cartesian basis functions of A   symmetry.
 There are    51 symmetry adapted basis functions of A   symmetry.
    51 basis functions,   153 primitive gaussians,    51 cartesian basis functions
    32 alpha electrons       32 beta electrons
       nuclear repulsion energy       397.8767463202 Hartrees.
 NAtoms=   15 NActive=   15 NUniq=   15 SFac= 1.00D+00 NAtFMM=   60 NAOKFM=F Big=F
 Integral buffers will be    262144 words long.
 Raffenetti 2 integral format.
 Two-electron integral symmetry is turned on.
 One-electron integrals computed using PRISM.
 NBasis=    51 RedAO= T EigKep=  1.72D-01  NBF=    51
 NBsUse=    51 1.00D-06 EigRej= -1.00D+00 NBFU=    51
 ExpMin= 1.69D-01 ExpMax= 1.31D+02 ExpMxC= 1.31D+02 IAcc=1 IRadAn=         1 AccDes= 0.00D+00
 Harris functional with IExCor=  402 and IRadAn=       1 diagonalized for initial guess.
 HarFok:  IExCor=  402 AccDes= 0.00D+00 IRadAn=         1 IDoV= 1 UseB2=F ITyADJ=14
 ICtDFT=  3500011 ScaDFX=  1.000000  1.000000  1.000000  1.000000
 FoFCou: FMM=F IPFlag=           0 FMFlag=      100000 FMFlg1=           0
         NFxFlg=           0 DoJE=T BraDBF=F KetDBF=T FulRan=T
         wScrn=  0.000000 ICntrl=     500 IOpCl=  0 I1Cent=   200000004 NGrid=           0
         NMat0=    1 NMatS0=      1 NMatT0=    0 NMatD0=    1 NMtDS0=    0 NMtDT0=    0
 Petite list used in FoFCou.
 Keep R1 ints in memory in canonical form, NReq=1772160.
 Requested convergence on RMS density matrix=1.00D-08 within 128 cycles.
 Requested convergence on MAX density matrix=1.00D-06.
 Requested convergence on             energy=1.00D-06.
 No special actions if energy rises.
 Integral accuracy reduced to 1.0D-05 until final iterations.
 Initial convergence to 1.0D-05 achieved.  Increase integral accuracy.
 SCF Done:  E(RB3LYP) =  -415.377783057     A.U. after   15 cycles
            NFock= 15  Conv=0.51D-08     -V/T= 2.0162

 **********************************************************************

            Population analysis using the SCF density.

 **********************************************************************

 Orbital symmetries:
       Occupied  (A) (A) (A) (A) (A) (A) (A) (A) (A) (A) (A) (A)
                 (A) (A) (A) (A) (A) (A) (A) (A) (A) (A) (A) (A)
                 (A) (A) (A) (A) (A) (A) (A) (A)
       Virtual   (A) (A) (A) (A) (A) (A) (A) (A) (A) (A) (A) (A)
                 (A) (A) (A) (A) (A) (A) (A)
 The electronic state is 1-A.
 Alpha  occ. eigenvalues --  -18.92151 -18.85880 -10.10210 -10.02975 -10.01795
 Alpha  occ. eigenvalues --  -10.01682 -10.01617 -10.01560 -10.01465  -1.01248
 Alpha  occ. eigenvalues --   -0.93036  -0.81956  -0.71870  -0.70980  -0.59513
 Alpha  occ. eigenvalues --   -0.56935  -0.52990  -0.48065  -0.43348  -0.40796
 Alpha  occ. eigenvalues --   -0.39302  -0.38505  -0.35418  -0.35131  -0.31512
 Alpha  occ. eigenvalues --   -0.30741  -0.30725  -0.25799  -0.20487  -0.20397
 Alpha  occ. eigenvalues --   -0.17827  -0.14475
 Alpha virt. eigenvalues --    0.04941   0.08310   0.14331   0.26042   0.26098
 Alpha virt. eigenvalues --    0.34378   0.38064   0.38497   0.41089   0.44234
 Alpha virt. eigenvalues --    0.45432   0.46555   0.54456   0.57378   0.58341
 Alpha virt. eigenvalues --    0.59608   0.65443   0.76814   0.80240
          Condensed to atoms (all electrons):
               1          2          3          4          5          6
     1  C    4.796676   0.502939  -0.030765  -0.012154  -0.029822   0.506974
     2  C    0.502939   4.812705   0.496896  -0.029395  -0.012317  -0.029131
     3  C   -0.030765   0.496896   4.803063   0.504914  -0.029818  -0.012177
     4  C   -0.012154  -0.029395   0.504914   4.797555   0.504541  -0.030068
     5  C   -0.029822  -0.012317  -0.029818   0.504541   4.796348   0.503616
     6  C    0.506974  -0.029131  -0.012177  -0.030068   0.503616   4.795155
     7  H    0.387239  -0.025407   0.001450   0.000034   0.001429  -0.024515
     8  H    0.001396  -0.025261   0.388980  -0.024805   0.001432   0.000042
     9  H    0.000034   0.001441  -0.025195   0.389247  -0.025255   0.001452
    10  H    0.001458   0.000043   0.001454  -0.025177   0.389144  -0.025202
    11  H   -0.025187   0.001429   0.000037   0.001447  -0.025224   0.389640
    12  C   -0.024613   0.364813  -0.025133   0.000822   0.000009   0.000802
    13  O   -0.002329  -0.024881   0.000274  -0.000002   0.000000   0.000001
    14  O    0.000146  -0.018673  -0.000819  -0.000001   0.000000  -0.000001
    15  H   -0.000027   0.002138   0.000032   0.000000   0.000000   0.000000
               7          8          9         10         11         12
     1  C    0.387239   0.001396   0.000034   0.001458  -0.025187  -0.024613
     2  C   -0.025407  -0.025261   0.001441   0.000043   0.001429   0.364813
     3  C    0.001450   0.388980  -0.025195   0.001454   0.000037  -0.025133
     4  C    0.000034  -0.024805   0.389247  -0.025177   0.001447   0.000822
     5  C    0.001429   0.001432  -0.025255   0.389144  -0.025224   0.000009
     6  C   -0.024515   0.000042   0.001452  -0.025202   0.389640   0.000802
     7  H    0.570084  -0.000034   0.000002  -0.000033  -0.003774  -0.003305
     8  H   -0.000034   0.572600  -0.003740  -0.000033   0.000002  -0.003967
     9  H    0.000002  -0.003740   0.583123  -0.003745  -0.000034  -0.000015
    10  H   -0.000033  -0.000033  -0.003745   0.582747  -0.003743   0.000001
    11  H   -0.003774   0.000002  -0.000034  -0.003743   0.581465  -0.000014
    12  C   -0.003305  -0.003967  -0.000015   0.000001  -0.000014   4.848248
    13  O    0.001663   0.000014   0.000000   0.000000   0.000000   0.409920
    14  O    0.000013   0.001067   0.000000   0.000000   0.000000   0.263303
    15  H   -0.000004  -0.000083   0.000000   0.000000   0.000000  -0.032564
              13         14         15
     1  C   -0.002329   0.000146  -0.000027
     2  C   -0.024881  -0.018673   0.002138
     3  C    0.000274  -0.000819   0.000032
     4  C   -0.000002  -0.000001   0.000000
     5  C    0.000000   0.000000   0.000000
     6  C    0.000001  -0.000001   0.000000
     7  H    0.001663   0.000013  -0.000004
     8  H    0.000014   0.001067  -0.000083
     9  H    0.000000   0.000000   0.000000
    10  H    0.000000   0.000000   0.000000
    11  H    0.000000   0.000000   0.000000
    12  C    0.409920   0.263303  -0.032564
    13  O    7.857311  -0.019818   0.000732
    14  O   -0.019818   7.783767   0.247612
    15  H    0.000732   0.247612   0.551519
 Mulliken charges:
               1
     1  C   -0.071965
     2  C   -0.017338
     3  C   -0.073194
     4  C   -0.076959
     5  C   -0.074082
     6  C   -0.076590
     7  H    0.095157
     8  H    0.092389
     9  H    0.082685
    10  H    0.083087
    11  H    0.083956
    12  C    0.201694
    13  O   -0.222886
    14  O   -0.256598
    15  H    0.230644
 Sum of Mulliken charges =   0.00000
 Mulliken charges with hydrogens summed into heavy atoms:
               1
     1  C    0.023192
     2  C   -0.017338
     3  C    0.019196
     4  C    0.005726
     5  C    0.009006
     6  C    0.007366
    12  C    0.201694
    13  O   -0.222886
    14  O   -0.025954
 Electronic spatial extent (au):  <R**2>=           1212.3930
 Charge=              0.0000 electrons
 Dipole moment (field-independent basis, Debye):
    X=              0.4001    Y=             -0.7739    Z=             -0.0001  Tot=              0.8712
 Quadrupole moment (field-independent basis, Debye-Ang):
   XX=            -39.9004   YY=            -46.9451   ZZ=            -48.2765
   XY=              3.1695   XZ=              0.0017   YZ=              0.0031
 Traceless Quadrupole moment (field-independent basis, Debye-Ang):
   XX=              5.1403   YY=             -1.9044   ZZ=             -3.2358
   XY=              3.1695   XZ=              0.0017   YZ=              0.0031
 Octapole moment (field-independent basis, Debye-Ang**2):
  XXX=            -37.9231  YYY=             -0.4494  ZZZ=              0.0016  XYY=              2.7588
  XXY=            -11.4837  XXZ=              0.0010  XZZ=            -12.2332  YZZ=              0.6296
  YYZ=              0.0028  XYZ=             -0.0048
 Hexadecapole moment (field-independent basis, Debye-Ang**3):
 XXXX=           -844.2051 YYYY=           -341.2052 ZZZZ=            -36.0817 XXXY=             43.5778
 XXXZ=              0.0002 YYYX=              3.5012 YYYZ=              0.0005 ZZZX=             -0.0041
 ZZZY=             -0.0096 XXYY=           -230.6081 XXZZ=           -178.0987 YYZZ=            -68.6885
 XXYZ=              0.0126 YYXZ=              0.0046 ZZXY=             -0.7980
 N-N= 3.978767463202D+02 E-N=-1.764758137107D+03  KE= 4.087597098322D+02
 Calling FoFJK, ICntrl=      2127 FMM=F ISym2X=0 I1Cent= 0 IOpClX= 0 NMat=1 NMatS=1 NMatT=0.
 ***** Axes restored to original set *****
 -------------------------------------------------------------------
 Center     Atomic                   Forces (Hartrees/Bohr)
 Number     Number              X              Y              Z
 -------------------------------------------------------------------
      1        6          -0.010448446   -0.011311886   -0.014742612
      2        6           0.029053460   -0.015734805    0.017525708
      3        6           0.011773026    0.008119941    0.014191923
      4        6           0.005966837    0.011783516    0.011113074
      5        6          -0.008709503    0.015520127    0.000224951
      6        6          -0.011817266    0.000698086   -0.009975758
      7        1           0.002282519   -0.001478454    0.001249255
      8        1          -0.000506651   -0.001449930   -0.001165662
      9        1          -0.000314338   -0.000832609   -0.000717368
     10        1           0.000538307   -0.000926639    0.000017268
     11        1           0.001013200   -0.000597545    0.000588533
     12        6          -0.003529126   -0.028859710   -0.017554368
     13        8           0.000786452   -0.006737256   -0.002684629
     14        8          -0.030501144    0.102947667    0.025027011
     15        1           0.014412672   -0.071140504   -0.023097325
 -------------------------------------------------------------------
 Cartesian Forces:  Max     0.102947667 RMS     0.022258227

 GradGradGradGradGradGradGradGradGradGradGradGradGradGradGradGradGradGrad
 Berny optimization.
 FormGI is forming the generalized inverse of G from B-inverse, IUseBI=4.
 Internal  Forces:  Max     0.073564212 RMS     0.012888659
 Search for a local minimum.
 Step number   1 out of a maximum of   77
 All quantities printed in internal units (Hartrees-Bohrs-Radians)
 Mixed Optimization -- RFO/linear search
 Second derivative matrix not updated -- first step.
 ITU=  0
     Eigenvalues ---    0.00237   0.00588   0.01295   0.01565   0.02152
     Eigenvalues ---    0.02153   0.02154   0.02155   0.02155   0.02155
     Eigenvalues ---    0.02156   0.02157   0.16000   0.16000   0.16000
     Eigenvalues ---    0.16000   0.16000   0.16000   0.22000   0.22000
     Eigenvalues ---    0.23486   0.25000   0.25000   0.25000   0.28519
     Eigenvalues ---    0.33709   0.33718   0.33718   0.33725   0.33726
     Eigenvalues ---    0.40989   0.42107   0.42314   0.46412   0.46453
     Eigenvalues ---    0.46466   0.46497   0.55473   0.80209
 RFO step:  Lambda=-2.86743666D-02 EMin= 2.36824022D-03
 Linear search not attempted -- first point.
 Maximum step size (   0.300) exceeded in Quadratic search.
    -- Step size scaled by   0.997
 Iteration  1 RMS(Cart)=  0.04533839 RMS(Int)=  0.00211633
 Iteration  2 RMS(Cart)=  0.00336939 RMS(Int)=  0.00000591
 Iteration  3 RMS(Cart)=  0.00000484 RMS(Int)=  0.00000474
 Iteration  4 RMS(Cart)=  0.00000000 RMS(Int)=  0.00000474
 Variable       Old X    -DE/DX   Delta X   Delta X   Delta X     New X
                                 (Linear)    (Quad)   (Total)
    R1        2.63647   0.01817   0.00000   0.03697   0.03697   2.67344
    R2        2.63584   0.01434   0.00000   0.02882   0.02882   2.66466
    R3        2.07796  -0.00031   0.00000  -0.00084  -0.00084   2.07712
    R4        2.63562   0.02287   0.00000   0.04655   0.04655   2.68218
    R5        2.91018  -0.00615   0.00000  -0.01953  -0.01953   2.89065
    R6        2.63697   0.01453   0.00000   0.02955   0.02955   2.66653
    R7        2.07809  -0.00093   0.00000  -0.00253  -0.00253   2.07557
    R8        2.63584   0.01711   0.00000   0.03434   0.03434   2.67018
    R9        2.07809  -0.00114   0.00000  -0.00311  -0.00311   2.07498
   R10        2.63643   0.01789   0.00000   0.03580   0.03579   2.67222
   R11        2.07825  -0.00107   0.00000  -0.00292  -0.00292   2.07533
   R12        2.07795  -0.00123   0.00000  -0.00334  -0.00334   2.07461
   R13        2.37803   0.00642   0.00000   0.00770   0.00770   2.38573
   R14        2.70231  -0.01532   0.00000  -0.03483  -0.03483   2.66748
   R15        1.81414   0.07356   0.00000   0.12570   0.12570   1.93984
    A1        2.09437  -0.00074   0.00000  -0.00282  -0.00282   2.09155
    A2        2.09435  -0.00272   0.00000  -0.01493  -0.01493   2.07941
    A3        2.09447   0.00346   0.00000   0.01775   0.01775   2.11222
    A4        2.09455  -0.00039   0.00000  -0.00034  -0.00033   2.09422
    A5        2.09406  -0.00761   0.00000  -0.02776  -0.02777   2.06629
    A6        2.09458   0.00800   0.00000   0.02810   0.02810   2.12268
    A7        2.09429  -0.00023   0.00000   0.00009   0.00010   2.09439
    A8        2.09462  -0.00164   0.00000  -0.00933  -0.00933   2.08529
    A9        2.09427   0.00187   0.00000   0.00924   0.00923   2.10351
   A10        2.09429  -0.00048   0.00000  -0.00211  -0.00212   2.09217
   A11        2.09407   0.00025   0.00000   0.00111   0.00111   2.09517
   A12        2.09483   0.00023   0.00000   0.00101   0.00101   2.09584
   A13        2.09448   0.00087   0.00000   0.00230   0.00229   2.09676
   A14        2.09459  -0.00045   0.00000  -0.00122  -0.00122   2.09338
   A15        2.09411  -0.00042   0.00000  -0.00108  -0.00107   2.09304
   A16        2.09440   0.00097   0.00000   0.00289   0.00288   2.09727
   A17        2.09453  -0.00098   0.00000  -0.00405  -0.00404   2.09049
   A18        2.09426   0.00001   0.00000   0.00116   0.00117   2.09542
   A19        2.09836   0.02258   0.00000   0.08079   0.08079   2.17914
   A20        2.09241  -0.03693   0.00000  -0.13210  -0.13210   1.96031
   A21        2.09241   0.01434   0.00000   0.05131   0.05131   2.14373
   A22        1.91114  -0.03585   0.00000  -0.18942  -0.18942   1.72171
    D1        0.00056  -0.00001   0.00000  -0.00027  -0.00027   0.00029
    D2        3.14078   0.00002   0.00000   0.00043   0.00042   3.14120
    D3       -3.14112  -0.00001   0.00000  -0.00027  -0.00027  -3.14139
    D4       -0.00091   0.00002   0.00000   0.00044   0.00043  -0.00048
    D5        0.00026  -0.00001   0.00000  -0.00020  -0.00021   0.00005
    D6        3.14140   0.00000   0.00000   0.00011   0.00011   3.14152
    D7       -3.14124  -0.00001   0.00000  -0.00020  -0.00021  -3.14145
    D8       -0.00010   0.00001   0.00000   0.00011   0.00011   0.00002
    D9       -0.00099   0.00002   0.00000   0.00054   0.00054  -0.00045
   D10        3.14093   0.00001   0.00000   0.00034   0.00035   3.14127
   D11       -3.14120   0.00000   0.00000  -0.00012  -0.00013  -3.14134
   D12        0.00072  -0.00001   0.00000  -0.00032  -0.00033   0.00039
   D13        0.00138  -0.00002   0.00000  -0.00052  -0.00052   0.00086
   D14       -3.14021  -0.00002   0.00000  -0.00040  -0.00040  -3.14061
   D15        3.14159   0.00001   0.00000   0.00016   0.00016  -3.14143
   D16        0.00000   0.00001   0.00000   0.00029   0.00029   0.00029
   D17        0.00060  -0.00002   0.00000  -0.00033  -0.00033   0.00026
   D18       -3.14153   0.00000   0.00000  -0.00006  -0.00006   3.14159
   D19       -3.14132  -0.00001   0.00000  -0.00014  -0.00014  -3.14146
   D20       -0.00026   0.00001   0.00000   0.00013   0.00013  -0.00014
   D21        0.00023  -0.00001   0.00000  -0.00015  -0.00014   0.00009
   D22       -3.14158   0.00000   0.00000   0.00004   0.00004  -3.14155
   D23       -3.14083  -0.00002   0.00000  -0.00041  -0.00041  -3.14124
   D24        0.00054  -0.00001   0.00000  -0.00023  -0.00023   0.00031
   D25       -0.00066   0.00002   0.00000   0.00041   0.00041  -0.00025
   D26        3.14138   0.00000   0.00000   0.00009   0.00009   3.14148
   D27        3.14116   0.00001   0.00000   0.00023   0.00023   3.14139
   D28        0.00001   0.00000   0.00000  -0.00009  -0.00009  -0.00008
   D29       -3.14079  -0.00002   0.00000  -0.00042  -0.00041  -3.14120
   D30        0.00081  -0.00001   0.00000  -0.00029  -0.00029   0.00052
         Item               Value     Threshold  Converged?
 Maximum Force            0.073564     0.000450     NO 
 RMS     Force            0.012889     0.000300     NO 
 Maximum Displacement     0.217084     0.001800     NO 
 RMS     Displacement     0.047026     0.001200     NO 
 Predicted change in Energy=-1.562740D-02
 GradGradGradGradGradGradGradGradGradGradGradGradGradGradGradGradGradGrad

                          Input orientation:                          
 ---------------------------------------------------------------------
 Center     Atomic      Atomic             Coordinates (Angstroms)
 Number     Number       Type             X           Y           Z
 ---------------------------------------------------------------------
      1          6           0       -2.516144   -1.040068   -0.862275
      2          6           0       -1.413011   -1.216936    0.005634
      3          6           0       -1.017749   -0.165979    0.873853
      4          6           0       -1.724699    1.055216    0.870859
      5          6           0       -2.825901    1.228802    0.002654
      6          6           0       -3.220111    0.181715   -0.862114
      7          1           0       -2.810297   -1.863226   -1.528644
      8          1           0       -0.160277   -0.312489    1.544402
      9          1           0       -1.419551    1.868745    1.542224
     10          1           0       -3.376891    2.178789   -0.000642
     11          1           0       -4.075954    0.317909   -1.536077
     12          6           0       -0.673575   -2.555731   -0.021495
     13          8           0       -0.971827   -3.529733   -0.767293
     14          8           0        0.401011   -2.593207    0.893046
     15          1           0        0.731908   -3.546244    0.703396
 ---------------------------------------------------------------------
                    Distance matrix (angstroms):
                    1          2          3          4          5
     1  C    0.000000
     2  C    1.414726   0.000000
     3  C    2.454253   1.419347   0.000000
     4  C    2.832023   2.451212   1.411066   0.000000
     5  C    2.447820   2.824518   2.444140   1.412996   0.000000
     6  C    1.410079   2.444344   2.825751   2.449991   1.414078
     7  H    1.099165   2.173501   3.444687   3.931087   3.450472
     8  H    3.445515   2.180636   1.098344   2.184421   3.443562
     9  H    3.930054   3.447111   2.179052   1.098032   2.181197
    10  H    3.441561   3.922731   3.439220   2.179833   1.098215
    11  H    2.175113   3.438588   3.923587   3.444614   2.181755
    12  C    2.529665   1.529665   2.575076   3.865242   4.353824
    13  O    2.931274   2.478122   3.743034   4.926674   5.164694
    14  O    3.742082   2.443828   2.811526   4.222573   5.080700
    15  H    4.391137   3.242410   3.810058   5.218850   5.995841
                    6          7          8          9         10
     6  C    0.000000
     7  H    2.189518   0.000000
     8  H    3.924046   4.344077   0.000000
     9  H    3.445131   5.029116   2.518642   0.000000
    10  H    2.180601   4.358177   4.352038   2.511522   0.000000
    11  H    1.097836   2.521763   5.021880   4.351725   2.511798
    12  C    3.832113   2.704929   2.783459   4.751598   5.451976
    13  O    4.340347   2.595549   4.043909   5.888793   6.241740
    14  O    4.888077   4.087781   2.437413   4.862601   6.151680
    15  H    5.653932   4.512402   3.458390   5.886808   7.081943
                   11         12         13         14         15
    11  H    0.000000
    12  C    4.704035   0.000000
    13  O    5.003097   1.262477   0.000000
    14  O    5.866724   1.411568   2.349146   0.000000
    15  H    6.562199   1.866003   2.250758   1.026519   0.000000
 Stoichiometry    C7H6O2
 Framework group  C1[X(C7H6O2)]
 Deg. of freedom    39
 Full point group                 C1      NOp   1
 Largest Abelian subgroup         C1      NOp   1
 Largest concise Abelian subgroup C1      NOp   1
                         Standard orientation:                         
 ---------------------------------------------------------------------
 Center     Atomic      Atomic             Coordinates (Angstroms)
 Number     Number       Type             X           Y           Z
 ---------------------------------------------------------------------
      1          6           0        0.529083    1.242669    0.000108
      2          6           0       -0.211372    0.037192   -0.000384
      3          6           0        0.464800   -1.210742   -0.000264
      4          6           0        1.875349   -1.248901   -0.000209
      5          6           0        2.612004   -0.043125    0.000050
      6          6           0        1.938525    1.200275    0.000357
      7          1           0       -0.008801    2.201232    0.000204
      8          1           0       -0.118398   -2.141462   -0.000343
      9          1           0        2.399201   -2.213916   -0.000116
     10          1           0        3.709853   -0.071503    0.000049
     11          1           0        2.512128    2.136343    0.000667
     12          6           0       -1.738696    0.121784   -0.000116
     13          8           0       -2.401820    1.196080   -0.000371
     14          8           0       -2.346121   -1.152405    0.000623
     15          1           0       -3.328615   -0.855007    0.000280
 ---------------------------------------------------------------------
 Rotational constants (GHZ):      3.7100205      1.1772973      0.8937003
 Standard basis: STO-3G (5D, 7F)
 There are    51 symmetry adapted cartesian basis functions of A   symmetry.
 There are    51 symmetry adapted basis functions of A   symmetry.
    51 basis functions,   153 primitive gaussians,    51 cartesian basis functions
    32 alpha electrons       32 beta electrons
       nuclear repulsion energy       396.4767496586 Hartrees.
 NAtoms=   15 NActive=   15 NUniq=   15 SFac= 1.00D+00 NAtFMM=   60 NAOKFM=F Big=F
 Integral buffers will be    262144 words long.
 Raffenetti 2 integral format.
 Two-electron integral symmetry is turned on.
 One-electron integrals computed using PRISM.
 NBasis=    51 RedAO= T EigKep=  1.81D-01  NBF=    51
 NBsUse=    51 1.00D-06 EigRej= -1.00D+00 NBFU=    51
 Initial guess from the checkpoint file:  "D:\mindmap\gaussian\calculate\opt_freq\bencooh\3TO-3G.chk"
 B after Tr=     0.000000    0.000000    0.000000
         Rot=    0.999940    0.000000   -0.000005   -0.010941 Ang=   1.25 deg.
 ExpMin= 1.69D-01 ExpMax= 1.31D+02 ExpMxC= 1.31D+02 IAcc=1 IRadAn=         1 AccDes= 0.00D+00
 Harris functional with IExCor=  402 and IRadAn=       1 diagonalized for initial guess.
 HarFok:  IExCor=  402 AccDes= 0.00D+00 IRadAn=         1 IDoV= 1 UseB2=F ITyADJ=14
 ICtDFT=  3500011 ScaDFX=  1.000000  1.000000  1.000000  1.000000
 FoFCou: FMM=F IPFlag=           0 FMFlag=      100000 FMFlg1=           0
         NFxFlg=           0 DoJE=T BraDBF=F KetDBF=T FulRan=T
         wScrn=  0.000000 ICntrl=     500 IOpCl=  0 I1Cent=   200000004 NGrid=           0
         NMat0=    1 NMatS0=      1 NMatT0=    0 NMatD0=    1 NMtDS0=    0 NMtDT0=    0
 Petite list used in FoFCou.
 Keep R1 ints in memory in canonical form, NReq=1772160.
 Requested convergence on RMS density matrix=1.00D-08 within 128 cycles.
 Requested convergence on MAX density matrix=1.00D-06.
 Requested convergence on             energy=1.00D-06.
 No special actions if energy rises.
 Integral accuracy reduced to 1.0D-05 until final iterations.
 Initial convergence to 1.0D-05 achieved.  Increase integral accuracy.
 SCF Done:  E(RB3LYP) =  -415.390580507     A.U. after   14 cycles
            NFock= 14  Conv=0.34D-08     -V/T= 2.0166
 Calling FoFJK, ICntrl=      2127 FMM=F ISym2X=0 I1Cent= 0 IOpClX= 0 NMat=1 NMatS=1 NMatT=0.
 ***** Axes restored to original set *****
 -------------------------------------------------------------------
 Center     Atomic                   Forces (Hartrees/Bohr)
 Number     Number              X              Y              Z
 -------------------------------------------------------------------
      1        6          -0.001602654    0.005315095    0.001239361
      2        6           0.002714111    0.002804746    0.003844781
      3        6          -0.003342676    0.001742255   -0.002064886
      4        6          -0.000578917   -0.003737434   -0.002344008
      5        6           0.001141392   -0.003266666   -0.000637797
      6        6           0.002036777   -0.000181738    0.001646471
      7        1           0.000517358   -0.000538727    0.000185097
      8        1           0.000315968   -0.000570260   -0.000011986
      9        1           0.000106499    0.000219213    0.000187924
     10        1          -0.000244670    0.000301619   -0.000052341
     11        1          -0.000480074    0.000450454   -0.000189916
     12        6          -0.016833413    0.000932212   -0.014158748
     13        8           0.005063005    0.003112284    0.005943213
     14        8           0.004797506   -0.004329857    0.001974566
     15        1           0.006389788   -0.002253194    0.004438270
 -------------------------------------------------------------------
 Cartesian Forces:  Max     0.016833413 RMS     0.004185321

 GradGradGradGradGradGradGradGradGradGradGradGradGradGradGradGradGradGrad
 Berny optimization.
 Using GEDIIS/GDIIS optimizer.
 FormGI is forming the generalized inverse of G from B-inverse, IUseBI=4.
 Internal  Forces:  Max     0.014323929 RMS     0.002898216
 Search for a local minimum.
 Step number   2 out of a maximum of   77
 All quantities printed in internal units (Hartrees-Bohrs-Radians)
 Mixed Optimization -- RFO/linear search
 Update second derivatives using D2CorX and points    1    2
 DE= -1.28D-02 DEPred=-1.56D-02 R= 8.19D-01
 TightC=F SS=  1.41D+00  RLast= 3.00D-01 DXNew= 5.0454D-01 9.0001D-01
 Trust test= 8.19D-01 RLast= 3.00D-01 DXMaxT set to 5.05D-01
 ITU=  1  0
 Use linear search instead of GDIIS.
     Eigenvalues ---    0.00237   0.00578   0.01295   0.01565   0.02152
     Eigenvalues ---    0.02153   0.02154   0.02155   0.02155   0.02155
     Eigenvalues ---    0.02156   0.02157   0.15955   0.16000   0.16000
     Eigenvalues ---    0.16000   0.16000   0.18740   0.21976   0.22000
     Eigenvalues ---    0.23344   0.23896   0.25000   0.26186   0.28655
     Eigenvalues ---    0.33710   0.33717   0.33720   0.33725   0.33734
     Eigenvalues ---    0.41652   0.42221   0.42368   0.46358   0.46441
     Eigenvalues ---    0.46465   0.49027   0.53717   0.80856
 RFO step:  Lambda=-1.47607629D-03 EMin= 2.36824028D-03
 Quartic linear search produced a step of -0.09468.
 Iteration  1 RMS(Cart)=  0.01930135 RMS(Int)=  0.00061365
 Iteration  2 RMS(Cart)=  0.00063949 RMS(Int)=  0.00000118
 Iteration  3 RMS(Cart)=  0.00000062 RMS(Int)=  0.00000112
 Variable       Old X    -DE/DX   Delta X   Delta X   Delta X     New X
                                 (Linear)    (Quad)   (Total)
    R1        2.67344   0.00013  -0.00350   0.00622   0.00272   2.67616
    R2        2.66466  -0.00294  -0.00273  -0.00107  -0.00380   2.66087
    R3        2.07712   0.00015   0.00008   0.00027   0.00035   2.07747
    R4        2.68218  -0.00365  -0.00441   0.00030  -0.00411   2.67807
    R5        2.89065   0.00197   0.00185   0.00308   0.00493   2.89558
    R6        2.66653  -0.00343  -0.00280  -0.00211  -0.00491   2.66162
    R7        2.07557   0.00032   0.00024   0.00044   0.00068   2.07625
    R8        2.67018  -0.00228  -0.00325   0.00085  -0.00240   2.66778
    R9        2.07498   0.00031   0.00029   0.00032   0.00062   2.07560
   R10        2.67222  -0.00402  -0.00339  -0.00221  -0.00559   2.66663
   R11        2.07533   0.00038   0.00028   0.00056   0.00084   2.07616
   R12        2.07461   0.00055   0.00032   0.00093   0.00124   2.07585
   R13        2.38573  -0.00711  -0.00073  -0.00681  -0.00754   2.37819
   R14        2.66748   0.01285   0.00330   0.02276   0.02606   2.69353
   R15        1.93984   0.00333  -0.01190   0.02514   0.01324   1.95308
    A1        2.09155   0.00137   0.00027   0.00554   0.00581   2.09736
    A2        2.07941  -0.00147   0.00141  -0.00991  -0.00850   2.07092
    A3        2.11222   0.00010  -0.00168   0.00437   0.00269   2.11491
    A4        2.09422  -0.00152   0.00003  -0.00530  -0.00527   2.08895
    A5        2.06629   0.00079   0.00263  -0.00176   0.00087   2.06716
    A6        2.12268   0.00073  -0.00266   0.00706   0.00440   2.12708
    A7        2.09439   0.00003  -0.00001  -0.00011  -0.00012   2.09427
    A8        2.08529  -0.00061   0.00088  -0.00482  -0.00393   2.08135
    A9        2.10351   0.00058  -0.00087   0.00493   0.00405   2.10756
   A10        2.09217   0.00104   0.00020   0.00328   0.00348   2.09565
   A11        2.09517  -0.00054  -0.00010  -0.00174  -0.00185   2.09333
   A12        2.09584  -0.00050  -0.00010  -0.00153  -0.00163   2.09421
   A13        2.09676   0.00004  -0.00022   0.00004  -0.00017   2.09659
   A14        2.09338   0.00006   0.00012   0.00043   0.00055   2.09392
   A15        2.09304  -0.00010   0.00010  -0.00048  -0.00037   2.09267
   A16        2.09727  -0.00096  -0.00027  -0.00345  -0.00372   2.09355
   A17        2.09049   0.00091   0.00038   0.00368   0.00407   2.09456
   A18        2.09542   0.00005  -0.00011  -0.00023  -0.00034   2.09508
   A19        2.17914   0.00597  -0.00765   0.03462   0.02697   2.20611
   A20        1.96031  -0.00124   0.01251  -0.02592  -0.01341   1.94690
   A21        2.14373  -0.00473  -0.00486  -0.00870  -0.01356   2.13017
   A22        1.72171   0.01432   0.01793   0.04852   0.06646   1.78817
    D1        0.00029  -0.00001   0.00003  -0.00042  -0.00040  -0.00010
    D2        3.14120   0.00001  -0.00004   0.00054   0.00050  -3.14149
    D3       -3.14139  -0.00001   0.00003  -0.00036  -0.00033   3.14147
    D4       -0.00048   0.00001  -0.00004   0.00061   0.00057   0.00008
    D5        0.00005   0.00000   0.00002  -0.00012  -0.00010  -0.00005
    D6        3.14152   0.00000  -0.00001   0.00015   0.00014  -3.14153
    D7       -3.14145   0.00000   0.00002  -0.00019  -0.00017   3.14157
    D8        0.00002   0.00000  -0.00001   0.00008   0.00007   0.00009
    D9       -0.00045   0.00001  -0.00005   0.00068   0.00063   0.00017
   D10        3.14127   0.00001  -0.00003   0.00049   0.00046  -3.14145
   D11       -3.14134   0.00000   0.00001  -0.00031  -0.00030   3.14155
   D12        0.00039  -0.00001   0.00003  -0.00050  -0.00047  -0.00008
   D13        0.00086  -0.00001   0.00005  -0.00092  -0.00087  -0.00001
   D14       -3.14061  -0.00001   0.00004  -0.00137  -0.00134   3.14124
   D15       -3.14143   0.00001  -0.00002   0.00006   0.00004  -3.14139
   D16        0.00029   0.00000  -0.00003  -0.00040  -0.00043  -0.00014
   D17        0.00026  -0.00001   0.00003  -0.00039  -0.00036  -0.00009
   D18        3.14159   0.00000   0.00001  -0.00006  -0.00005   3.14154
   D19       -3.14146   0.00000   0.00001  -0.00020  -0.00019   3.14154
   D20       -0.00014   0.00000  -0.00001   0.00013   0.00012  -0.00002
   D21        0.00009   0.00000   0.00001  -0.00016  -0.00014  -0.00006
   D22       -3.14155   0.00000   0.00000   0.00001   0.00000  -3.14154
   D23       -3.14124  -0.00001   0.00004  -0.00049  -0.00045   3.14149
   D24        0.00031  -0.00001   0.00002  -0.00032  -0.00030   0.00001
   D25       -0.00025   0.00001  -0.00004   0.00042   0.00038   0.00013
   D26        3.14148   0.00000  -0.00001   0.00014   0.00013  -3.14158
   D27        3.14139   0.00001  -0.00002   0.00025   0.00023  -3.14157
   D28       -0.00008   0.00000   0.00001  -0.00002  -0.00002  -0.00009
   D29       -3.14120  -0.00001   0.00004  -0.00059  -0.00055   3.14143
   D30        0.00052  -0.00001   0.00003  -0.00104  -0.00101  -0.00049
         Item               Value     Threshold  Converged?
 Maximum Force            0.014324     0.000450     NO 
 RMS     Force            0.002898     0.000300     NO 
 Maximum Displacement     0.097219     0.001800     NO 
 RMS     Displacement     0.019486     0.001200     NO 
 Predicted change in Energy=-8.838599D-04
 GradGradGradGradGradGradGradGradGradGradGradGradGradGradGradGradGradGrad

                          Input orientation:                          
 ---------------------------------------------------------------------
 Center     Atomic      Atomic             Coordinates (Angstroms)
 Number     Number       Type             X           Y           Z
 ---------------------------------------------------------------------
      1          6           0       -2.525659   -1.030113   -0.865432
      2          6           0       -1.420231   -1.218307   -0.000485
      3          6           0       -1.022130   -0.171351    0.867717
      4          6           0       -1.725179    1.049102    0.867641
      5          6           0       -2.826453    1.231029    0.003307
      6          6           0       -3.226207    0.191315   -0.862976
      7          1           0       -2.819723   -1.853480   -1.531892
      8          1           0       -0.163435   -0.325035    1.535677
      9          1           0       -1.415900    1.859916    1.540930
     10          1           0       -3.373666    2.183712    0.004557
     11          1           0       -4.083328    0.334418   -1.534954
     12          6           0       -0.686542   -2.563037   -0.035994
     13          8           0       -0.965459   -3.546824   -0.769585
     14          8           0        0.397489   -2.592562    0.889017
     15          1           0        0.783354   -3.541220    0.750001
 ---------------------------------------------------------------------
                    Distance matrix (angstroms):
                    1          2          3          4          5
     1  C    0.000000
     2  C    1.416164   0.000000
     3  C    2.449873   1.417171   0.000000
     4  C    2.822666   2.446993   1.408468   0.000000
     5  C    2.440891   2.824309   2.443247   1.411727   0.000000
     6  C    1.408070   2.447953   2.825735   2.446204   1.411118
     7  H    1.099352   2.169616   3.437880   3.921831   3.445443
     8  H    3.441302   2.176525   1.098702   2.184850   3.444003
     9  H    3.921022   3.442591   2.175848   1.098359   2.179322
    10  H    3.435793   3.922967   3.438181   2.179395   1.098658
    11  H    2.176359   3.443492   3.924228   3.441526   2.179425
    12  C    2.533806   1.532273   2.578658   3.865601   4.356111
    13  O    2.962641   2.494058   3.752038   4.937633   5.185416
    14  O    3.750217   2.446200   2.806784   4.215197   5.079186
    15  H    4.457000   3.288608   3.824873   5.232364   6.030143
                    6          7          8          9         10
     6  C    0.000000
     7  H    2.189490   0.000000
     8  H    3.924376   4.336126   0.000000
     9  H    3.440960   5.020186   2.518473   0.000000
    10  H    2.178073   4.355048   4.352439   2.509609   0.000000
    11  H    1.098495   2.526580   5.022870   4.347802   2.508705
    12  C    3.836699   2.700304   2.784321   4.751965   5.454715
    13  O    4.369598   2.624275   4.041955   5.896967   6.264009
    14  O    4.893937   4.093592   2.423733   4.851590   6.149526
    15  H    5.710525   4.586684   3.443478   5.885113   7.114166
                   11         12         13         14         15
    11  H    0.000000
    12  C    4.709595   0.000000
    13  O    5.036957   1.258486   0.000000
    14  O    5.875421   1.425356   2.349299   0.000000
    15  H    6.627684   1.932673   2.316792   1.033523   0.000000
 Stoichiometry    C7H6O2
 Framework group  C1[X(C7H6O2)]
 Deg. of freedom    39
 Full point group                 C1      NOp   1
 Largest Abelian subgroup         C1      NOp   1
 Largest concise Abelian subgroup C1      NOp   1
                         Standard orientation:                         
 ---------------------------------------------------------------------
 Center     Atomic      Atomic             Coordinates (Angstroms)
 Number     Number       Type             X           Y           Z
 ---------------------------------------------------------------------
      1          6           0        0.542796    1.241960    0.000010
      2          6           0       -0.208811    0.041707    0.000156
      3          6           0        0.462117   -1.206584    0.000060
      4          6           0        1.869938   -1.249252    0.000031
      5          6           0        2.614023   -0.049539   -0.000016
      6          6           0        1.950104    1.195638   -0.000106
      7          1           0        0.004960    2.200765   -0.000032
      8          1           0       -0.128059   -2.133320    0.000042
      9          1           0        2.389016   -2.217214    0.000005
     10          1           0        3.712117   -0.084718   -0.000084
     11          1           0        2.530500    2.128285   -0.000157
     12          6           0       -1.738035    0.138337    0.000134
     13          8           0       -2.419494    1.196354    0.000005
     14          8           0       -2.344131   -1.151736   -0.000179
     15          1           0       -3.352328   -0.924340    0.000006
 ---------------------------------------------------------------------
 Rotational constants (GHZ):      3.7141953      1.1719116      0.8908337
 Standard basis: STO-3G (5D, 7F)
 There are    51 symmetry adapted cartesian basis functions of A   symmetry.
 There are    51 symmetry adapted basis functions of A   symmetry.
    51 basis functions,   153 primitive gaussians,    51 cartesian basis functions
    32 alpha electrons       32 beta electrons
       nuclear repulsion energy       396.0537040571 Hartrees.
 NAtoms=   15 NActive=   15 NUniq=   15 SFac= 1.00D+00 NAtFMM=   60 NAOKFM=F Big=F
 Integral buffers will be    262144 words long.
 Raffenetti 2 integral format.
 Two-electron integral symmetry is turned on.
 One-electron integrals computed using PRISM.
 NBasis=    51 RedAO= T EigKep=  1.81D-01  NBF=    51
 NBsUse=    51 1.00D-06 EigRej= -1.00D+00 NBFU=    51
 Initial guess from the checkpoint file:  "D:\mindmap\gaussian\calculate\opt_freq\bencooh\3TO-3G.chk"
 B after Tr=     0.000000    0.000000    0.000000
         Rot=    1.000000    0.000000    0.000000    0.000617 Ang=  -0.07 deg.
 ExpMin= 1.69D-01 ExpMax= 1.31D+02 ExpMxC= 1.31D+02 IAcc=1 IRadAn=         1 AccDes= 0.00D+00
 Harris functional with IExCor=  402 and IRadAn=       1 diagonalized for initial guess.
 HarFok:  IExCor=  402 AccDes= 0.00D+00 IRadAn=         1 IDoV= 1 UseB2=F ITyADJ=14
 ICtDFT=  3500011 ScaDFX=  1.000000  1.000000  1.000000  1.000000
 FoFCou: FMM=F IPFlag=           0 FMFlag=      100000 FMFlg1=           0
         NFxFlg=           0 DoJE=T BraDBF=F KetDBF=T FulRan=T
         wScrn=  0.000000 ICntrl=     500 IOpCl=  0 I1Cent=   200000004 NGrid=           0
         NMat0=    1 NMatS0=      1 NMatT0=    0 NMatD0=    1 NMtDS0=    0 NMtDT0=    0
 Petite list used in FoFCou.
 Keep R1 ints in memory in canonical form, NReq=1772160.
 Requested convergence on RMS density matrix=1.00D-08 within 128 cycles.
 Requested convergence on MAX density matrix=1.00D-06.
 Requested convergence on             energy=1.00D-06.
 No special actions if energy rises.
 Integral accuracy reduced to 1.0D-05 until final iterations.
 Initial convergence to 1.0D-05 achieved.  Increase integral accuracy.
 SCF Done:  E(RB3LYP) =  -415.391296899     A.U. after   12 cycles
            NFock= 12  Conv=0.41D-08     -V/T= 2.0167
 Calling FoFJK, ICntrl=      2127 FMM=F ISym2X=0 I1Cent= 0 IOpClX= 0 NMat=1 NMatS=1 NMatT=0.
 ***** Axes restored to original set *****
 -------------------------------------------------------------------
 Center     Atomic                   Forces (Hartrees/Bohr)
 Number     Number              X              Y              Z
 -------------------------------------------------------------------
      1        6           0.000091631    0.001034935    0.000600115
      2        6           0.000665583    0.000893445    0.001006158
      3        6          -0.000719158   -0.000070930   -0.000645204
      4        6          -0.000427757   -0.000869799   -0.000810025
      5        6           0.000638144   -0.000693968    0.000194323
      6        6           0.000668985   -0.000618641    0.000289240
      7        1          -0.000105314   -0.000063363   -0.000120762
      8        1           0.000027262   -0.000072836   -0.000009668
      9        1           0.000017785    0.000040266    0.000036253
     10        1           0.000062356    0.000046286    0.000080161
     11        1           0.000051880   -0.000010620    0.000034733
     12        6          -0.000793235   -0.004833802   -0.003147507
     13        8           0.000363558    0.002316324    0.001495766
     14        8           0.002869207   -0.001049976    0.001990614
     15        1          -0.003410927    0.003952678   -0.000994195
 -------------------------------------------------------------------
 Cartesian Forces:  Max     0.004833802 RMS     0.001424420

 GradGradGradGradGradGradGradGradGradGradGradGradGradGradGradGradGradGrad
 Berny optimization.
 Using GEDIIS/GDIIS optimizer.
 FormGI is forming the generalized inverse of G from B-inverse, IUseBI=4.
 Internal  Forces:  Max     0.004768112 RMS     0.001000599
 Search for a local minimum.
 Step number   3 out of a maximum of   77
 All quantities printed in internal units (Hartrees-Bohrs-Radians)
 Mixed Optimization -- RFO/linear search
 Update second derivatives using D2CorX and points    1    2    3
 DE= -7.16D-04 DEPred=-8.84D-04 R= 8.11D-01
 TightC=F SS=  1.41D+00  RLast= 8.24D-02 DXNew= 8.4853D-01 2.4729D-01
 Trust test= 8.11D-01 RLast= 8.24D-02 DXMaxT set to 5.05D-01
 ITU=  1  1  0
 Use linear search instead of GDIIS.
     Eigenvalues ---    0.00237   0.00566   0.01295   0.01561   0.02152
     Eigenvalues ---    0.02153   0.02154   0.02155   0.02155   0.02155
     Eigenvalues ---    0.02156   0.02157   0.15873   0.16000   0.16000
     Eigenvalues ---    0.16000   0.16006   0.20232   0.21565   0.22000
     Eigenvalues ---    0.22510   0.23640   0.25036   0.27731   0.29762
     Eigenvalues ---    0.33710   0.33718   0.33720   0.33724   0.33746
     Eigenvalues ---    0.42186   0.42373   0.43253   0.46320   0.46441
     Eigenvalues ---    0.46549   0.47881   0.57731   0.79173
 RFO step:  Lambda=-1.21977304D-04 EMin= 2.36824747D-03
 Quartic linear search produced a step of -0.14981.
 Iteration  1 RMS(Cart)=  0.00509356 RMS(Int)=  0.00001544
 Iteration  2 RMS(Cart)=  0.00001777 RMS(Int)=  0.00000038
 Iteration  3 RMS(Cart)=  0.00000000 RMS(Int)=  0.00000038
 Variable       Old X    -DE/DX   Delta X   Delta X   Delta X     New X
                                 (Linear)    (Quad)   (Total)
    R1        2.67616  -0.00071  -0.00041  -0.00092  -0.00133   2.67483
    R2        2.66087  -0.00127   0.00057  -0.00343  -0.00286   2.65800
    R3        2.07747   0.00015  -0.00005   0.00047   0.00041   2.07789
    R4        2.67807  -0.00136   0.00062  -0.00384  -0.00322   2.67484
    R5        2.89558  -0.00079  -0.00074  -0.00102  -0.00175   2.89382
    R6        2.66162  -0.00106   0.00074  -0.00336  -0.00262   2.65900
    R7        2.07625   0.00003  -0.00010   0.00025   0.00014   2.07639
    R8        2.66778  -0.00109   0.00036  -0.00282  -0.00247   2.66531
    R9        2.07560   0.00006  -0.00009   0.00031   0.00022   2.07582
   R10        2.66663  -0.00066   0.00084  -0.00280  -0.00196   2.66467
   R11        2.07616   0.00001  -0.00013   0.00025   0.00012   2.07628
   R12        2.07585  -0.00006  -0.00019   0.00016  -0.00002   2.07583
   R13        2.37819  -0.00276   0.00113  -0.00480  -0.00367   2.37453
   R14        2.69353   0.00018  -0.00390   0.00686   0.00296   2.69649
   R15        1.95308  -0.00477  -0.00198  -0.00506  -0.00704   1.94603
    A1        2.09736  -0.00002  -0.00087   0.00137   0.00050   2.09786
    A2        2.07092   0.00010   0.00127  -0.00137  -0.00009   2.07083
    A3        2.11491  -0.00008  -0.00040  -0.00001  -0.00041   2.11450
    A4        2.08895   0.00016   0.00079  -0.00073   0.00006   2.08901
    A5        2.06716   0.00007  -0.00013   0.00070   0.00057   2.06773
    A6        2.12708  -0.00023  -0.00066   0.00003  -0.00063   2.12645
    A7        2.09427  -0.00011   0.00002  -0.00054  -0.00052   2.09375
    A8        2.08135  -0.00002   0.00059  -0.00098  -0.00039   2.08096
    A9        2.10756   0.00013  -0.00061   0.00152   0.00092   2.10848
   A10        2.09565   0.00010  -0.00052   0.00118   0.00066   2.09631
   A11        2.09333  -0.00005   0.00028  -0.00063  -0.00035   2.09297
   A12        2.09421  -0.00005   0.00024  -0.00055  -0.00031   2.09390
   A13        2.09659   0.00001   0.00003   0.00005   0.00008   2.09667
   A14        2.09392  -0.00012  -0.00008  -0.00053  -0.00061   2.09332
   A15        2.09267   0.00011   0.00006   0.00047   0.00053   2.09320
   A16        2.09355  -0.00014   0.00056  -0.00134  -0.00078   2.09277
   A17        2.09456   0.00006  -0.00061   0.00118   0.00058   2.09513
   A18        2.09508   0.00007   0.00005   0.00015   0.00021   2.09529
   A19        2.20611   0.00077  -0.00404   0.00832   0.00428   2.21039
   A20        1.94690  -0.00228   0.00201  -0.00982  -0.00781   1.93909
   A21        2.13017   0.00152   0.00203   0.00150   0.00353   2.13371
   A22        1.78817  -0.00459  -0.00996  -0.00704  -0.01699   1.77118
    D1       -0.00010   0.00000   0.00006   0.00008   0.00014   0.00004
    D2       -3.14149   0.00000  -0.00007  -0.00003  -0.00011   3.14159
    D3        3.14147   0.00000   0.00005   0.00011   0.00016  -3.14156
    D4        0.00008   0.00000  -0.00008  -0.00001  -0.00009  -0.00001
    D5       -0.00005   0.00000   0.00002   0.00004   0.00005   0.00000
    D6       -3.14153   0.00000  -0.00002  -0.00006  -0.00008   3.14158
    D7        3.14157   0.00000   0.00003   0.00001   0.00004  -3.14158
    D8        0.00009   0.00000  -0.00001  -0.00008  -0.00009   0.00000
    D9        0.00017   0.00000  -0.00009  -0.00014  -0.00023  -0.00006
   D10       -3.14145   0.00000  -0.00007  -0.00010  -0.00017   3.14156
   D11        3.14155   0.00000   0.00004  -0.00002   0.00003   3.14158
   D12       -0.00008   0.00000   0.00007   0.00002   0.00009   0.00001
   D13       -0.00001  -0.00001   0.00013  -0.00084  -0.00071  -0.00072
   D14        3.14124   0.00001   0.00020   0.00163   0.00183  -3.14012
   D15       -3.14139  -0.00001  -0.00001  -0.00096  -0.00097   3.14083
   D16       -0.00014   0.00001   0.00006   0.00151   0.00157   0.00143
   D17       -0.00009   0.00000   0.00005   0.00007   0.00013   0.00003
   D18        3.14154   0.00000   0.00001   0.00006   0.00007  -3.14157
   D19        3.14154   0.00000   0.00003   0.00004   0.00006  -3.14159
   D20       -0.00002   0.00000  -0.00002   0.00003   0.00001  -0.00001
   D21       -0.00006   0.00000   0.00002   0.00005   0.00007   0.00001
   D22       -3.14154   0.00000   0.00000  -0.00006  -0.00006   3.14158
   D23        3.14149   0.00000   0.00007   0.00005   0.00012  -3.14157
   D24        0.00001   0.00000   0.00005  -0.00006  -0.00001   0.00000
   D25        0.00013   0.00000  -0.00006  -0.00010  -0.00016  -0.00003
   D26       -3.14158   0.00000  -0.00002  -0.00001  -0.00003   3.14158
   D27       -3.14157   0.00000  -0.00003   0.00001  -0.00003   3.14159
   D28       -0.00009   0.00000   0.00000   0.00010   0.00010   0.00001
   D29        3.14143   0.00000   0.00008  -0.00082  -0.00073   3.14070
   D30       -0.00049   0.00001   0.00015   0.00153   0.00168   0.00119
         Item               Value     Threshold  Converged?
 Maximum Force            0.004768     0.000450     NO 
 RMS     Force            0.001001     0.000300     NO 
 Maximum Displacement     0.021338     0.001800     NO 
 RMS     Displacement     0.005105     0.001200     NO 
 Predicted change in Energy=-8.260871D-05
 GradGradGradGradGradGradGradGradGradGradGradGradGradGradGradGradGradGrad

                          Input orientation:                          
 ---------------------------------------------------------------------
 Center     Atomic      Atomic             Coordinates (Angstroms)
 Number     Number       Type             X           Y           Z
 ---------------------------------------------------------------------
      1          6           0       -2.525379   -1.029858   -0.865381
      2          6           0       -1.420090   -1.218845   -0.001583
      3          6           0       -1.021692   -0.173918    0.866145
      4          6           0       -1.723979    1.045373    0.866660
      5          6           0       -2.824603    1.228325    0.003847
      6          6           0       -3.225206    0.190236   -0.862304
      7          1           0       -2.820069   -1.852949   -1.532265
      8          1           0       -0.162663   -0.328821    1.533519
      9          1           0       -1.414159    1.855807    1.540350
     10          1           0       -3.370974    2.181561    0.006587
     11          1           0       -4.082603    0.334127   -1.533743
     12          6           0       -0.686849   -2.562750   -0.037571
     13          8           0       -0.961956   -3.547902   -0.767434
     14          8           0        0.394793   -2.582893    0.892887
     15          1           0        0.772361   -3.529929    0.747813
 ---------------------------------------------------------------------
                    Distance matrix (angstroms):
                    1          2          3          4          5
     1  C    0.000000
     2  C    1.415460   0.000000
     3  C    2.447834   1.415466   0.000000
     4  C    2.819360   2.443947   1.407081   0.000000
     5  C    2.438131   2.821582   2.441379   1.410423   0.000000
     6  C    1.406555   2.446384   2.824113   2.444230   1.410081
     7  H    1.099571   2.169105   3.435939   3.918741   3.442951
     8  H    3.439274   2.174811   1.098779   2.184220   3.442459
     9  H    3.917833   3.439634   2.174481   1.098476   2.178056
    10  H    3.433449   3.920304   3.436022   2.177899   1.098722
    11  H    2.175341   3.442123   3.922594   3.439610   2.178609
    12  C    2.532829   1.531345   2.575915   3.861583   4.352466
    13  O    2.965540   2.494177   3.749121   4.934482   5.184271
    14  O    3.745775   2.440185   2.794692   4.201689   5.067571
    15  H    4.441603   3.272544   3.807287   5.213369   6.011041
                    6          7          8          9         10
     6  C    0.000000
     7  H    2.188056   0.000000
     8  H    3.922825   4.334029   0.000000
     9  H    3.439006   5.017213   2.517716   0.000000
    10  H    2.177520   4.353026   4.350495   2.507523   0.000000
    11  H    1.098483   2.525331   5.021307   4.345820   2.508395
    12  C    3.834368   2.699733   2.780923   4.747891   5.451144
    13  O    4.370924   2.628767   4.036797   5.893252   6.263324
    14  O    4.886239   4.092617   2.408735   4.836690   6.137308
    15  H    5.693211   4.573464   3.426177   5.866442   7.094911
                   11         12         13         14         15
    11  H    0.000000
    12  C    4.707608   0.000000
    13  O    5.039426   1.256546   0.000000
    14  O    5.868953   1.426922   2.351314   0.000000
    15  H    6.611134   1.918738   2.303074   1.029797   0.000000
 Stoichiometry    C7H6O2
 Framework group  C1[X(C7H6O2)]
 Deg. of freedom    39
 Full point group                 C1      NOp   1
 Largest Abelian subgroup         C1      NOp   1
 Largest concise Abelian subgroup C1      NOp   1
                         Standard orientation:                         
 ---------------------------------------------------------------------
 Center     Atomic      Atomic             Coordinates (Angstroms)
 Number     Number       Type             X           Y           Z
 ---------------------------------------------------------------------
      1          6           0        0.543345    1.242071   -0.000018
      2          6           0       -0.209200    0.043237   -0.000431
      3          6           0        0.459480   -1.204325   -0.000444
      4          6           0        1.865888   -1.247843   -0.000118
      5          6           0        2.610835   -0.050202    0.000263
      6          6           0        1.949112    1.194969    0.000328
      7          1           0        0.006362    2.201605    0.000016
      8          1           0       -0.132173   -2.130209   -0.000737
      9          1           0        2.384066   -2.216421   -0.000148
     10          1           0        3.708924   -0.087472    0.000531
     11          1           0        2.530588    2.126929    0.000636
     12          6           0       -1.737446    0.140612   -0.000798
     13          8           0       -2.421812    1.194439   -0.000047
     14          8           0       -2.334781   -1.155264    0.000771
     15          1           0       -3.337097   -0.918948    0.001210
 ---------------------------------------------------------------------
 Rotational constants (GHZ):      3.7165073      1.1750239      0.8927645
 Standard basis: STO-3G (5D, 7F)
 There are    51 symmetry adapted cartesian basis functions of A   symmetry.
 There are    51 symmetry adapted basis functions of A   symmetry.
    51 basis functions,   153 primitive gaussians,    51 cartesian basis functions
    32 alpha electrons       32 beta electrons
       nuclear repulsion energy       396.4160107109 Hartrees.
 NAtoms=   15 NActive=   15 NUniq=   15 SFac= 1.00D+00 NAtFMM=   60 NAOKFM=F Big=F
 Integral buffers will be    262144 words long.
 Raffenetti 2 integral format.
 Two-electron integral symmetry is turned on.
 One-electron integrals computed using PRISM.
 NBasis=    51 RedAO= T EigKep=  1.80D-01  NBF=    51
 NBsUse=    51 1.00D-06 EigRej= -1.00D+00 NBFU=    51
 Initial guess from the checkpoint file:  "D:\mindmap\gaussian\calculate\opt_freq\bencooh\3TO-3G.chk"
 B after Tr=     0.000000    0.000000    0.000000
         Rot=    1.000000    0.000000    0.000000   -0.000165 Ang=  -0.02 deg.
 ExpMin= 1.69D-01 ExpMax= 1.31D+02 ExpMxC= 1.31D+02 IAcc=1 IRadAn=         1 AccDes= 0.00D+00
 Harris functional with IExCor=  402 and IRadAn=       1 diagonalized for initial guess.
 HarFok:  IExCor=  402 AccDes= 0.00D+00 IRadAn=         1 IDoV= 1 UseB2=F ITyADJ=14
 ICtDFT=  3500011 ScaDFX=  1.000000  1.000000  1.000000  1.000000
 FoFCou: FMM=F IPFlag=           0 FMFlag=      100000 FMFlg1=           0
         NFxFlg=           0 DoJE=T BraDBF=F KetDBF=T FulRan=T
         wScrn=  0.000000 ICntrl=     500 IOpCl=  0 I1Cent=   200000004 NGrid=           0
         NMat0=    1 NMatS0=      1 NMatT0=    0 NMatD0=    1 NMtDS0=    0 NMtDT0=    0
 Petite list used in FoFCou.
 Keep R1 ints in memory in canonical form, NReq=1772160.
 Requested convergence on RMS density matrix=1.00D-08 within 128 cycles.
 Requested convergence on MAX density matrix=1.00D-06.
 Requested convergence on             energy=1.00D-06.
 No special actions if energy rises.
 Integral accuracy reduced to 1.0D-05 until final iterations.
 Initial convergence to 1.0D-05 achieved.  Increase integral accuracy.
 SCF Done:  E(RB3LYP) =  -415.391379938     A.U. after   11 cycles
            NFock= 11  Conv=0.53D-08     -V/T= 2.0166
 Calling FoFJK, ICntrl=      2127 FMM=F ISym2X=0 I1Cent= 0 IOpClX= 0 NMat=1 NMatS=1 NMatT=0.
 ***** Axes restored to original set *****
 -------------------------------------------------------------------
 Center     Atomic                   Forces (Hartrees/Bohr)
 Number     Number              X              Y              Z
 -------------------------------------------------------------------
      1        6          -0.000006713   -0.000239298   -0.000135399
      2        6          -0.000093786   -0.000013600   -0.000179510
      3        6           0.000385541   -0.000252307    0.000198309
      4        6          -0.000066869    0.000463217    0.000181925
      5        6          -0.000052676    0.000463765    0.000187573
      6        6          -0.000308713   -0.000199968   -0.000363475
      7        1          -0.000044379    0.000066242   -0.000007627
      8        1          -0.000062291    0.000017031   -0.000047326
      9        1          -0.000024748   -0.000022024   -0.000032204
     10        1           0.000055719   -0.000029100    0.000032113
     11        1           0.000058347   -0.000018037    0.000042759
     12        6          -0.000326703   -0.000372085   -0.000152646
     13        8           0.000289311    0.000318262    0.000289176
     14        8           0.000473018   -0.000964950   -0.000163388
     15        1          -0.000275058    0.000782852    0.000149720
 -------------------------------------------------------------------
 Cartesian Forces:  Max     0.000964950 RMS     0.000282691

 GradGradGradGradGradGradGradGradGradGradGradGradGradGradGradGradGradGrad
 Berny optimization.
 Using GEDIIS/GDIIS optimizer.
 FormGI is forming the generalized inverse of G from B-inverse, IUseBI=4.
 Internal  Forces:  Max     0.000842251 RMS     0.000175368
 Search for a local minimum.
 Step number   4 out of a maximum of   77
 All quantities printed in internal units (Hartrees-Bohrs-Radians)
 Mixed Optimization -- En-DIIS/RFO-DIIS
 Update second derivatives using D2CorX and points    1    2    3    4
 DE= -8.30D-05 DEPred=-8.26D-05 R= 1.01D+00
 TightC=F SS=  1.41D+00  RLast= 2.25D-02 DXNew= 8.4853D-01 6.7642D-02
 Trust test= 1.01D+00 RLast= 2.25D-02 DXMaxT set to 5.05D-01
 ITU=  1  1  1  0
 Use linear search instead of GDIIS.
     Eigenvalues ---    0.00237   0.00568   0.01295   0.01562   0.02152
     Eigenvalues ---    0.02153   0.02154   0.02155   0.02155   0.02155
     Eigenvalues ---    0.02156   0.02157   0.15916   0.15993   0.16000
     Eigenvalues ---    0.16000   0.16002   0.20362   0.21186   0.22000
     Eigenvalues ---    0.22224   0.23578   0.24984   0.27732   0.31401
     Eigenvalues ---    0.33710   0.33717   0.33721   0.33727   0.33751
     Eigenvalues ---    0.42189   0.42360   0.43806   0.46322   0.46384
     Eigenvalues ---    0.46571   0.50260   0.54706   0.77239
 RFO step:  Lambda=-7.69323814D-06 EMin= 2.36826312D-03
 Quartic linear search produced a step of -0.00672.
 Iteration  1 RMS(Cart)=  0.00386223 RMS(Int)=  0.00002055
 Iteration  2 RMS(Cart)=  0.00002513 RMS(Int)=  0.00001249
 Iteration  3 RMS(Cart)=  0.00000000 RMS(Int)=  0.00001249
 Variable       Old X    -DE/DX   Delta X   Delta X   Delta X     New X
                                 (Linear)    (Quad)   (Total)
    R1        2.67483   0.00023   0.00001   0.00042   0.00043   2.67526
    R2        2.65800   0.00025   0.00002   0.00037   0.00039   2.65840
    R3        2.07789  -0.00003   0.00000  -0.00007  -0.00008   2.07781
    R4        2.67484   0.00030   0.00002   0.00047   0.00049   2.67534
    R5        2.89382   0.00028   0.00001   0.00087   0.00088   2.89470
    R6        2.65900   0.00049   0.00002   0.00091   0.00092   2.65992
    R7        2.07639  -0.00008   0.00000  -0.00023  -0.00023   2.07616
    R8        2.66531   0.00016   0.00002   0.00022   0.00023   2.66555
    R9        2.07582  -0.00004   0.00000  -0.00011  -0.00012   2.07570
   R10        2.66467   0.00055   0.00001   0.00108   0.00109   2.66576
   R11        2.07628  -0.00005   0.00000  -0.00015  -0.00015   2.07613
   R12        2.07583  -0.00007   0.00000  -0.00022  -0.00022   2.07561
   R13        2.37453  -0.00048   0.00002  -0.00080  -0.00077   2.37376
   R14        2.69649   0.00014  -0.00002   0.00051   0.00049   2.69698
   R15        1.94603  -0.00084   0.00005  -0.00186  -0.00181   1.94422
    A1        2.09786  -0.00001   0.00000  -0.00004  -0.00005   2.09782
    A2        2.07083   0.00008   0.00000   0.00048   0.00048   2.07131
    A3        2.11450  -0.00007   0.00000  -0.00044  -0.00044   2.11406
    A4        2.08901   0.00001   0.00000   0.00000   0.00000   2.08901
    A5        2.06773   0.00012   0.00000   0.00052   0.00051   2.06824
    A6        2.12645  -0.00013   0.00000  -0.00051  -0.00051   2.12594
    A7        2.09375   0.00004   0.00000   0.00014   0.00015   2.09390
    A8        2.08096  -0.00001   0.00000  -0.00008  -0.00007   2.08088
    A9        2.10848  -0.00003  -0.00001  -0.00007  -0.00007   2.10840
   A10        2.09631  -0.00005   0.00000  -0.00013  -0.00014   2.09617
   A11        2.09297   0.00004   0.00000   0.00018   0.00018   2.09316
   A12        2.09390   0.00000   0.00000  -0.00004  -0.00004   2.09386
   A13        2.09667  -0.00003   0.00000  -0.00007  -0.00007   2.09660
   A14        2.09332  -0.00003   0.00000  -0.00029  -0.00029   2.09303
   A15        2.09320   0.00006   0.00000   0.00036   0.00036   2.09356
   A16        2.09277   0.00003   0.00001   0.00011   0.00011   2.09288
   A17        2.09513  -0.00003   0.00000  -0.00010  -0.00011   2.09502
   A18        2.09529  -0.00001   0.00000   0.00000   0.00000   2.09528
   A19        2.21039   0.00011  -0.00003   0.00074   0.00065   2.21104
   A20        1.93909   0.00019   0.00005   0.00026   0.00026   1.93934
   A21        2.13371  -0.00030  -0.00002  -0.00096  -0.00104   2.13266
   A22        1.77118   0.00009   0.00011  -0.00050  -0.00038   1.77080
    D1        0.00004   0.00000   0.00000  -0.00014  -0.00014  -0.00010
[...]
 ! A6    A(3,2,12)             121.7953         -DE/DX =    0.0                 !
 ! A7    A(2,3,4)              119.9696         -DE/DX =    0.0                 !
 ! A8    A(2,3,8)              119.2286         -DE/DX =    0.0                 !
 ! A9    A(4,3,8)              120.8018         -DE/DX =    0.0                 !
 ! A10   A(3,4,5)              120.1008         -DE/DX =    0.0                 !
 ! A11   A(3,4,9)              119.927          -DE/DX =    0.0                 !
 ! A12   A(5,4,9)              119.9722         -DE/DX =    0.0                 !
 ! A13   A(4,5,6)              120.1266         -DE/DX =    0.0                 !
 ! A14   A(4,5,10)             119.9251         -DE/DX =    0.0                 !
 ! A15   A(6,5,10)             119.9484         -DE/DX =    0.0                 !
 ! A16   A(1,6,5)              119.915          -DE/DX =    0.0                 !
 ! A17   A(1,6,11)             120.0358         -DE/DX =    0.0                 !
 ! A18   A(5,6,11)             120.0492         -DE/DX =    0.0                 !
 ! A19   A(2,12,13)            126.6841         -DE/DX =    0.0                 !
 ! A20   A(2,12,14)            111.1303         -DE/DX =    0.0                 !
 ! A21   A(13,12,14)           122.1856         -DE/DX =    0.0                 !
 ! A22   A(12,14,15)           101.4953         -DE/DX =    0.0                 !
 ! D1    D(6,1,2,3)              0.0            -DE/DX =    0.0                 !
 ! D2    D(6,1,2,12)          -179.9999         -DE/DX =    0.0                 !
 ! D3    D(7,1,2,3)            180.0            -DE/DX =    0.0                 !
 ! D4    D(7,1,2,12)             0.0001         -DE/DX =    0.0                 !
 ! D5    D(2,1,6,5)             -0.0001         -DE/DX =    0.0                 !
 ! D6    D(2,1,6,11)           180.0            -DE/DX =    0.0                 !
 ! D7    D(7,1,6,5)           -180.0            -DE/DX =    0.0                 !
 ! D8    D(7,1,6,11)             0.0001         -DE/DX =    0.0                 !
 ! D9    D(1,2,3,4)              0.0001         -DE/DX =    0.0                 !
 ! D10   D(1,2,3,8)           -180.0            -DE/DX =    0.0                 !
 ! D11   D(12,2,3,4)           179.9999         -DE/DX =    0.0                 !
 ! D12   D(12,2,3,8)            -0.0002         -DE/DX =    0.0                 !
 ! D13   D(1,2,12,13)           -0.0031         -DE/DX =    0.0                 !
 ! D14   D(1,2,12,14)         -179.9989         -DE/DX =    0.0                 !
 ! D15   D(3,2,12,13)         -180.0029         -DE/DX =    0.0                 !
 ! D16   D(3,2,12,14)            0.0012         -DE/DX =    0.0                 !
 ! D17   D(2,3,4,5)             -0.0001         -DE/DX =    0.0                 !
 ! D18   D(2,3,4,9)            180.0            -DE/DX =    0.0                 !
 ! D19   D(8,3,4,5)           -180.0            -DE/DX =    0.0                 !
 ! D20   D(8,3,4,9)              0.0001         -DE/DX =    0.0                 !
 ! D21   D(3,4,5,6)              0.0            -DE/DX =    0.0                 !
 ! D22   D(3,4,5,10)           180.0            -DE/DX =    0.0                 !
 ! D23   D(9,4,5,6)            179.9999         -DE/DX =    0.0                 !
 ! D24   D(9,4,5,10)            -0.0001         -DE/DX =    0.0                 !
 ! D25   D(4,5,6,1)              0.0001         -DE/DX =    0.0                 !
 ! D26   D(4,5,6,11)           180.0            -DE/DX =    0.0                 !
 ! D27   D(10,5,6,1)           180.0            -DE/DX =    0.0                 !
 ! D28   D(10,5,6,11)            0.0            -DE/DX =    0.0                 !
 ! D29   D(2,12,14,15)         179.9986         -DE/DX =    0.0                 !
 ! D30   D(13,12,14,15)          0.0025         -DE/DX =    0.0                 !
 --------------------------------------------------------------------------------
 GradGradGradGradGradGradGradGradGradGradGradGradGradGradGradGradGradGrad

 1|1|UNPC-DESKTOP-KC5UJLK|Freq|RB3LYP|STO-3G|C7H6O2|23122|27-Mar-2022|0
 ||#N Geom=AllCheck Guess=TCheck SCRF=Check GenChk RB3LYP/STO-3G Freq||
 opt freq(GC)||0,1|C,-2.5260337737,-1.0300161247,-0.8657757299|C,-1.420
 725438,-1.2193498526,-0.0016758496|C,-1.0219681223,-0.174376487,0.8662
 637064|C,-1.7240330963,1.045674848,0.8668739172|C,-2.8246101536,1.2289
 787473,0.0038653841|C,-3.2255253213,0.1905176623,-0.8626940242|H,-2.82
 14191957,-1.8525737935,-1.5329353313|H,-0.1631216284,-0.329596405,1.53
 36384801|H,-1.4140470163,1.8559657332,1.5405680234|H,-3.3705046342,2.1
 824115724,0.0067253735|H,-4.0827244823,0.3346300876,-1.5341876533|C,-0
 .6870295821,-2.5635212692,-0.0368650467|O,-0.9605795064,-3.5489552495,
 -0.7663864665|O,0.3957938745,-2.5830909681,0.8925834524|H,0.7734599663
 ,-3.5291354513,0.7475293944||Version=IA32W-G09RevD.01|State=1-A|HF=-41
 5.3913823|RMSD=3.265e-009|RMSF=1.604e-005|ZeroPoint=0.1203052|Thermal=
 0.1275143|Dipole=0.0758405,0.2889507,0.2101233|DipoleDeriv=-0.0701519,
 -0.0287151,-0.018868,0.0976605,-0.0634018,0.0854757,0.0442717,-0.02414
 26,-0.0386,-0.1666503,0.107817,-0.072775,0.111708,-0.2412814,-0.013336
 6,-0.070825,-0.0167203,-0.0904302,-0.0367998,0.0571314,0.0547678,-0.05
 67235,-0.0844956,-0.0579226,-0.0021094,0.0408229,-0.0484704,-0.1571957
 ,0.0905656,-0.0213039,0.0896324,-0.0463458,0.0947902,-0.02177,0.095600
 9,-0.0515871,-0.0485184,-0.0516398,-0.0127866,-0.0479024,0.0038198,-0.
 0079032,-0.0109187,-0.0111459,-0.0785607,0.0038424,-0.0085175,0.069373
 1,-0.015617,-0.1919742,-0.0689662,0.0658246,-0.0628071,-0.0553319,0.08
 17003,0.0049715,0.0013303,0.0046255,0.0821134,0.0035543,0.0011582,0.00
 38529,0.0859598,0.0912621,0.0061877,0.0083914,-0.0092749,0.0848051,-0.
 0082174,0.0006668,0.0051936,0.0883238,0.0631709,0.0134208,-0.0083977,0
 .0105607,0.0596586,-0.0012941,-0.0098275,0.0011872,0.0726525,0.0717713
 ,-0.0065827,-0.0101824,-0.006617,0.0800165,-0.005591,-0.0101995,-0.005
 5614,0.0680942,0.0720216,0.0052892,-0.0048566,0.0092362,0.0530534,-0.0
 05785,-0.0028845,-0.0092078,0.0735656,0.9668525,-0.6432356,0.326612,-0
 .3619467,0.9058684,0.0288312,0.4671375,-0.2151425,0.5174903,-0.4176905
 ,0.2275368,-0.0502881,-0.0147853,-0.4203382,-0.1085991,-0.1713368,0.10
 15895,-0.3265258,-0.629968,0.1245711,-0.2368353,0.0536962,-0.132018,0.
 1230777,-0.2722638,0.1845555,-0.4290947,0.1763537,0.1011996,-0.0241811
 ,0.1357471,-0.0894801,-0.0581138,-0.0069237,-0.0880751,0.2125146|Polar
 =44.7977167,-19.1141958,66.4155347,21.5321518,12.1244711,33.6961513|PG
 =C01 [X(C7H6O2)]|NImag=0||0.51133008,-0.10720105,0.74164714,0.26459159
 ,0.20534636,0.47661102,-0.23820969,0.00011366,-0.14907319,0.50205544,0
 .05851537,-0.13145664,0.01818689,-0.09506579,0.61649100,-0.11989516,-0
 .03246812,-0.18648532,0.26308807,0.15361650,0.44891105,-0.00206781,-0.
 02515002,-0.02035665,-0.13264765,-0.06169496,-0.08939596,0.59115580,-0
 .07085501,0.05446527,-0.03769996,-0.00365904,-0.23447012,-0.08778452,-
 0.14947092,0.65404429,-0.04319135,0.00194234,-0.02957632,-0.06040090,-
 0.13812186,-0.18651249,0.31359134,0.12542420,0.47816581,-0.05305806,0.
 03847563,-0.01972896,0.05061080,0.02894875,0.05074417,-0.17227158,0.07
 826695,-0.05399116,0.51529290,0.03849771,-0.03070588,0.02212172,-0.022
 05549,-0.05820121,-0.05259460,0.15104373,-0.30758968,0.00977840,-0.097
 24664,0.72818582,-0.01971776,0.02210246,-0.01420907,0.02526227,-0.0083
 5594,0.02651702,-0.01763144,-0.05334448,-0.10688412,0.27484894,0.20831
 850,0.48486338,0.05394875,-0.02519925,0.02814518,-0.03667316,-0.023398
 34,-0.03564495,-0.02950885,0.07581495,0.00622626,-0.25040543,0.0026494
 5,-0.15902532,0.54064524,0.02670791,-0.05903743,-0.00981976,-0.0231669
 3,-0.00906912,-0.02010106,0.02374324,0.02386771,0.02902936,0.07639797,
 -0.14287338,0.02762448,-0.18474175,0.75578371,0.05407839,-0.05484152,0
 .02648990,-0.03552940,-0.02030186,-0.05001408,-0.01978917,0.07419400,0
 .02688695,-0.12217985,-0.03634153,-0.18966346,0.25136925,0.14520659,0.
 43499156,-0.17435426,0.15273838,-0.01864052,-0.02704233,0.02380664,-0.
 01871489,-0.00273578,0.00895045,0.00899916,-0.00182952,-0.02568566,-0.
 02057616,-0.13636473,-0.06436175,-0.09365842,0.59167241,0.08054506,-0.
 30833414,-0.05176884,0.07412037,0.01930332,0.06981201,0.00902280,-0.08
 061041,-0.02847293,-0.07664572,0.05807580,-0.04100986,0.00930470,-0.25
 642979,-0.08734167,-0.14248133,0.65485125,-0.05470899,0.01084839,-0.10
 691565,0.00642229,0.02617219,0.02689418,0.00903530,-0.02853581,-0.0143
 7561,-0.04603620,0.00319048,-0.03123761,-0.05685398,-0.15123640,-0.190
 32770,0.31845561,0.13242168,0.48481504,-0.08151638,-0.06392049,-0.0669
 4671,-0.00206151,-0.02139121,-0.01484102,-0.00079135,0.00426144,-0.005
 40412,-0.00057160,0.00026704,0.00050074,0.00107628,0.00434019,-0.00428
 967,0.00821483,0.01583744,0.01188834,0.07601442,-0.06379554,-0.2528719
 5,-0.16111107,0.00446915,0.00835647,0.00668862,0.00308576,0.00083032,-
 0.00085258,0.00048959,0.00024454,0.00104398,0.00514174,-0.00169824,-0.
 00064639,-0.01125544,-0.01169290,-0.01741840,0.06610420,0.25523637,-0.
 06688413,-0.16121947,-0.17970909,-0.00192111,-0.01574155,-0.00680335,-
 0.00599148,0.00016723,0.00278071,0.00061198,0.00085090,-0.00003919,-0.
 00388925,-0.00134167,0.00447833,-0.00164756,0.00608080,0.00524001,0.07
 358330,0.17023803,0.17812960,0.00378935,0.00039843,-0.00336960,-0.0016
 5584,0.00472560,-0.00108855,-0.26663453,0.04220956,-0.17479389,-0.0046
 3381,-0.00368922,-0.00913794,0.00312202,0.00394712,-0.00274449,0.00033
 960,-0.00001798,0.00115158,-0.00001805,0.00020019,-0.00013263,0.268947
 09,0.00145423,-0.00342714,-0.00439968,-0.02146836,0.00701517,-0.016275
 47,0.04254033,-0.06761518,0.02349822,0.02336780,0.00105397,0.01890787,
 0.00316773,-0.00370443,-0.00337979,-0.00026224,-0.00072825,-0.00009247
 ,-0.00108029,0.00053856,-0.00079292,-0.04570721,0.06387310,-0.00284216
 ,-0.00531542,0.00278298,-0.01417515,0.00644411,-0.00675414,-0.17462881
 ,0.02321112,-0.18066408,0.00437999,-0.00456003,0.00529731,-0.00313382,
 -0.00270378,0.00449087,0.00102956,0.00011933,-0.00004583,-0.00077237,0
 .00031771,-0.00026101,0.18555373,-0.02206560,0.17860473,-0.00071277,0.
 00045782,0.00042489,0.00128824,0.00431284,-0.00412708,0.00804149,0.016
 07014,0.01225820,-0.08383556,-0.06595702,-0.07059722,-0.00227506,-0.02
 145243,-0.01537571,-0.00044263,0.00398375,-0.00558399,-0.00036474,-0.0
 0040504,0.00053902,-0.00092387,-0.00162371,0.00253786,0.07945187,0.000
 40042,0.00033130,0.00098192,0.00521863,-0.00162165,-0.00054590,-0.0116
 4565,-0.01322648,-0.01829027,-0.06603845,-0.24966800,-0.16181349,0.006
 39018,0.00829872,0.00814226,0.00301376,0.00118261,-0.00093692,-0.00039
 480,-0.00026222,0.00013583,-0.00163385,0.00096512,0.00145575,0.0663422
 4,0.25376429,0.00039622,0.00103171,-0.00007982,-0.00367462,-0.00133151
 ,0.00467840,-0.00158879,0.00574902,0.00465942,-0.07063790,-0.16174279,
 -0.18250961,-0.00146534,-0.01600711,-0.00617306,-0.00606860,-0.0000956
 0,0.00297866,0.00054414,0.00012696,-0.00068411,0.00253281,0.00146455,-
 0.00185661,0.07716917,0.16998833,0.18055523,0.00239409,0.00019794,-0.0
 0506108,-0.00029755,-0.00111508,0.00009485,0.00012928,0.00074454,-0.00
 673116,-0.00625627,0.02317635,0.00313875,-0.14159500,0.15348961,-0.010
 73897,0.00869700,-0.01336968,-0.00214812,0.00037496,-0.00055006,0.0000
 7056,-0.00031205,0.00098177,0.00024080,-0.00058070,-0.00128633,0.00286
 960,0.13887975,-0.00057021,-0.00040454,-0.00486501,-0.00112556,0.00098
 084,0.00003796,0.00154073,0.00183753,-0.00190169,-0.00460205,0.0028977
 3,-0.00427995,0.15349372,-0.32166811,-0.00719019,0.01437935,-0.0119367
 5,0.00477339,0.00058628,-0.00056445,0.00023812,-0.00014746,0.00011204,
 -0.00005985,-0.00133593,0.00037027,0.00133950,-0.16125488,0.32805228,-
 0.00544482,-0.00419877,0.00152286,0.00008960,0.00004706,-0.00094798,-0
 .00633336,-0.00259233,0.00153030,-0.01073962,0.01981376,0.00405895,-0.
 01073691,-0.00719374,-0.05370809,0.01171552,-0.01929480,0.00399418,0.0
 0063829,-0.00074749,0.00015693,-0.00032337,0.00091959,0.00015479,0.002
 84482,0.00138251,-0.00147192,0.01513477,0.00977141,0.04655421,-0.00589
 022,-0.00352464,-0.00955288,0.00331430,0.00411045,-0.00253925,0.000403
 06,-0.00026276,0.00106992,0.00385360,0.00052109,-0.00363376,-0.0009938
 1,0.00562083,-0.00074114,-0.26579093,0.04062729,-0.17517860,-0.0009124
 3,-0.00164399,0.00253314,-0.00064159,-0.00024697,0.00040020,-0.0000731
 1,0.00017038,-0.00007768,-0.00100294,-0.00103865,0.00262312,0.26803909
 ,0.02422272,0.00070511,0.01981645,0.00310611,-0.00362303,-0.00341746,-
 0.00022074,-0.00083062,-0.00011591,0.00149677,-0.00302539,-0.00438162,
 -0.02216011,0.00706251,-0.01724010,0.04065710,-0.06872278,0.02112353,-
 0.00165628,0.00098568,0.00144397,-0.00025766,0.00001278,0.00040504,-0.
 00100961,0.00042120,-0.00072251,-0.00107694,0.00079445,0.00177376,-0.0
 4420484,0.06609234,0.00430987,-0.00425030,0.00470810,-0.00304102,-0.00
 254626,0.00469980,0.00109092,-0.00015236,-0.00011175,-0.00314630,-0.00
 522791,0.00300238,-0.01462076,0.00685575,-0.00615778,-0.17516362,0.021
 09767,-0.18180754,0.00252700,0.00145462,-0.00186139,0.00039485,0.00041
 432,-0.00069578,-0.00066722,0.00030096,-0.00031376,0.00260399,0.001806
 98,-0.00146415,0.18553269,-0.01964438,0.17977707,-0.01693484,0.0273969
 3,-0.00296180,-0.11652845,0.05495894,-0.01453193,0.01030760,-0.0039043
 3,0.00589983,0.00363909,-0.00163042,-0.00473468,-0.00113435,-0.0012125
 2,-0.00069143,-0.00000601,-0.00025320,-0.00714652,-0.00176016,-0.00017
 953,0.00215465,-0.00092732,-0.00266477,0.00159805,0.00076838,-0.000840
 24,0.00001321,-0.00072761,0.00016700,0.00055904,-0.00020328,0.00076008
 ,0.00001523,0.45250726,0.01719072,-0.00757496,0.00999643,0.04604120,-0
 .16681366,-0.00937865,0.00989564,-0.03013234,-0.00709902,-0.00287052,0
 .00345359,-0.00484027,-0.00032111,-0.00109913,-0.00031028,-0.00060241,
 0.00583579,-0.00164731,-0.00270748,0.00075375,0.00020031,-0.00108357,0
 .00187224,0.00214607,0.00022099,-0.00009725,0.00000861,-0.00001464,-0.
 00058743,0.00033126,-0.00033189,0.00078084,-0.00000617,-0.01060376,0.7
 8151746,-0.00806163,0.01884887,0.00468599,-0.01898879,-0.00164115,-0.0
 8540613,0.01279492,-0.01906795,0.00282719,-0.00535417,-0.00376497,0.00
 163368,-0.00024613,-0.00108329,-0.00179032,-0.00732085,-0.00134472,0.0
 0106603,0.00089165,0.00239304,-0.00237874,0.00238798,0.00077474,-0.001
 84644,0.00054342,-0.00091188,0.00028496,0.00046829,0.00048883,-0.00062
 555,-0.00053032,0.00094095,0.00022709,0.25331131,0.30411214,0.52597790
 ,-0.00122305,0.00207895,-0.00011230,0.01609910,0.01039138,0.00570875,-
 0.00197977,0.00311645,-0.00133173,0.00009320,0.00011757,0.00120610,0.0
 0015029,0.00062035,0.00031858,0.00045313,-0.00086840,0.00076851,0.0015
 6687,-0.00126520,0.00081018,-0.00002741,0.00058634,-0.00020336,-0.0002
 6302,0.00020306,0.00001068,0.00013713,-0.00000860,-0.00003105,0.000038
 33,0.00000459,0.00001406,-0.10765977,-0.09887141,-0.09495164,0.0963820
 5,-0.00584936,0.00247039,-0.00389118,0.00212400,-0.04572033,-0.0287415
 5,0.00522674,0.00136760,0.00454192,-0.00001731,-0.00227734,-0.00053869
 ,-0.00050577,0.00048609,-0.00026591,-0.00021907,-0.00081238,-0.0001298
 2,-0.00039619,0.00036303,-0.00011431,0.00012997,0.00025196,-0.00003347
 ,0.00034553,-0.00044423,0.00015686,0.00005551,0.00007385,0.00000114,0.
 00003753,-0.00007415,-0.00001686,-0.10182612,-0.48016200,-0.30064102,0
 .12024577,0.52207671,-0.00407281,0.00298532,-0.00193737,0.00157892,-0.
 02157266,0.00609554,-0.00027774,0.00271137,0.00246454,0.00113875,-0.00
 042137,-0.00045252,-0.00024403,0.00071072,0.00028376,0.00109288,-0.000
 69278,-0.00033144,0.00124431,-0.00086816,0.00054967,-0.00043135,0.0003
 6224,0.00035168,0.00008183,0.00003333,-0.00007074,0.00000097,-0.000054
 48,0.00014161,0.00003051,-0.00004543,0.00002853,-0.09642649,-0.2980753
 2,-0.28766807,0.12298736,0.35318676,0.30694478,0.00276706,0.00148196,0
 .00222802,-0.01608540,0.01368322,-0.01115715,-0.00146798,-0.00030891,-
 0.00194396,-0.00075215,0.00002911,-0.00002992,-0.00001498,0.00014354,0
 .00004033,-0.00024216,0.00047228,0.00018110,0.00072253,-0.00052581,0.0
 0026586,-0.00044071,0.00088823,-0.00013286,-0.00007477,0.00008747,-0.0
 0001120,0.00015781,-0.00009552,-0.00000642,-0.00007974,0.00019805,0.00
 010841,-0.19826168,-0.00739127,-0.13963514,-0.00904349,-0.01579497,-0.
 03405012,0.31229544,0.00073204,-0.00564905,-0.00271293,0.02996945,-0.0
 0305999,0.02213845,0.00233966,-0.00205909,0.00070318,-0.00017215,0.000
 36813,0.00038476,0.00028625,0.00008447,0.00027989,0.00127976,0.0000061
 7,0.00120243,0.00004480,-0.00019374,-0.00011445,0.00104012,-0.00127639
 ,0.00015255,0.00001680,-0.00001394,0.00001333,-0.00000988,0.00004122,-
 0.00004303,0.00018491,-0.00053904,-0.00006364,0.04914942,-0.10382112,0
 .01151276,-0.03325999,0.00383950,-0.03747903,-0.16623913,0.52355269,0.
 00185346,-0.00206239,0.00162908,-0.00301966,0.00801176,0.00604195,-0.0
 0062093,-0.00159405,-0.00073941,-0.00013048,0.00055935,-0.00053458,0.0
 0011164,0.00015612,0.00019603,0.00058448,0.00050210,0.00057892,0.00055
 096,-0.00060941,0.00028657,-0.00005698,0.00002081,0.00018504,-0.000046
 52,0.00007464,-0.00001454,0.00003636,-0.00011731,0.00008313,0.00010184
 ,-0.00005223,-0.00002841,-0.11139037,-0.03753037,-0.15689940,-0.042773
 54,-0.02232951,-0.02713982,0.16229709,0.10266459,0.22149419,-0.0002622
 3,0.00165574,0.00041401,-0.00216630,-0.00078781,-0.00769991,0.00006808
 ,-0.00097350,-0.00025644,0.00012438,-0.00003759,0.00012740,0.00002279,
 -0.00007539,-0.00006829,-0.00056863,-0.00027739,-0.00024633,0.00002631
 ,0.00012999,-0.00010253,0.00001713,0.00006714,0.00014835,-0.00000376,0
 .00001319,-0.00001169,0.00000211,0.00001179,0.00001039,-0.00006033,0.0
 0014076,0.00004191,-0.02307887,0.05144950,0.00469112,0.00527640,-0.003
 55626,0.00734703,-0.08947976,0.11463793,-0.00749735,0.11008269,0.00000
 498,-0.00015748,-0.00018134,0.00137860,0.00188893,-0.00098622,-0.00025
 634,0.00012120,-0.00006337,0.00014940,0.00006132,0.00018226,0.00007762
 ,-0.00000359,0.00003651,0.00004246,0.00001246,0.00026505,0.00010535,-0
 .00002521,-0.00003081,-0.00011404,0.00105644,0.00048646,0.00003363,0.0
 0000026,0.00002065,0.00003178,0.00000107,0.00002964,-0.00001874,-0.000
 03991,-0.00002242,-0.00931749,-0.00392577,-0.01061632,-0.00309085,-0.0
 0143868,-0.00078052,0.17337174,-0.41127982,-0.04769409,-0.16239809,0.4
 1372878,-0.00041071,0.00125053,0.00048272,-0.00661731,-0.00286571,-0.0
 0091448,0.00010185,-0.00068548,-0.00045114,0.00022082,0.00002009,0.000
 15743,0.00000817,-0.00009621,0.00001711,-0.00008658,-0.00001237,-0.000
 52565,-0.00011483,-0.00000945,0.00011506,0.00005785,0.00064360,0.00025
 647,-0.00000148,0.00000292,0.00001749,0.00002038,0.00001230,0.00002074
 ,-0.00003778,0.00011593,-0.00000242,-0.02566809,0.04209258,-0.00008819
 ,0.00757942,-0.00118438,0.00073983,0.02184597,-0.09863887,-0.04513874,
 0.00310232,0.05935451,0.04531378||-0.00000905,-0.00001978,-0.00001758,
 0.00000703,-0.00001574,0.00000182,0.00000931,0.00002451,0.00002028,0.0
 0002812,0.00000924,0.00002891,-0.00002876,0.00002174,-0.00001397,-0.00
 002513,0.00001572,-0.00001441,0.00000907,-0.00000629,0.00000477,-0.000
 00301,0.00000129,-0.00000178,-0.00000446,0.00000009,-0.00000393,0.0000
 0457,-0.00000169,0.00000317,0.00000364,-0.00000365,0.00000139,-0.00000
 864,-0.00001644,-0.00002646,0.00000439,0.00001293,0.00001448,-0.000018
 59,0.00001873,-0.00000358,0.00003151,-0.00004066,0.00000688|||@


 IF YOU DON'T HAVE THE LAW - ARGUE THE FACTS.
 IF YOU DON'T HAVE THE FACTS - ARGUE THE LAW.
 IF YOU DON'T HAVE EITHER - POUND THE TABLE.
 Job cpu time:       0 days  0 hours  0 minutes 31.0 seconds.
 File lengths (MBytes):  RWF=      9 Int=      0 D2E=      0 Chk=      1 Scr=      1
 Normal termination of Gaussian 09 at Sun Mar 27 09:01:20 2022.
