 Entering Link 1 = C:\G09W\l1.exe PID=      7596.
  
 Copyright (c) 1988,1990,1992,1993,1995,1998,2003,2009,2013,
            Gaussian, Inc.  All Rights Reserved.
  
 This is part of the Gaussian(R) 09 program.  It is based on
 the Gaussian(R) 03 system (copyright 2003, Gaussian, Inc.),
 the Gaussian(R) 98 system (copyright 1998, Gaussian, Inc.),
 the Gaussian(R) 94 system (copyright 1995, Gaussian, Inc.),
 the Gaussian 92(TM) system (copyright 1992, Gaussian, Inc.),
 the Gaussian 90(TM) system (copyright 1990, Gaussian, Inc.),
 the Gaussian 88(TM) system (copyright 1988, Gaussian, Inc.),
 the Gaussian 86(TM) system (copyright 1986, Carnegie Mellon
 University), and the Gaussian 82(TM) system (copyright 1983,
 Carnegie Mellon University). Gaussian is a federally registered
 trademark of Gaussian, Inc.
  
 This software contains proprietary and confidential information,
 including trade secrets, belonging to Gaussian, Inc.
  
 This software is provided under written license and may be
 used, copied, transmitted, or stored only in accord with that
 written license.
  
 The following legend is applicable only to US Government
 contracts under FAR:
  
                    RESTRICTED RIGHTS LEGEND
  
 Use, reproduction and disclosure by the US Government is
 subject to restrictions as set forth in subparagraphs (a)
 and (c) of the Commercial Computer Software - Restricted
 Rights clause in FAR 52.227-19.
  
 Gaussian, Inc.
 340 Quinnipiac St., Bldg. 40, Wallingford CT 06492
  
  
 ---------------------------------------------------------------
 Warning -- This program may not be used in any manner that
 competes with the business of Gaussian, Inc. or will provide
 assistance to any competitor of Gaussian, Inc.  The licensee
 of this program is prohibited from giving any competitor of
 Gaussian, Inc. access to this program.  By using this program,
 the user acknowledges that Gaussian, Inc. is engaged in the
 business of creating and licensing software in the field of
 computational chemistry and represents and warrants to the
 licensee that it is not a competitor of Gaussian, Inc. and that
 it will not use this program in any manner prohibited above.
 ---------------------------------------------------------------
  

 Cite this work as:
 Gaussian 09, Revision D.01,
 M. J. Frisch, G. W. Trucks, H. B. Schlegel, G. E. Scuseria, 
 M. A. Robb, J. R. Cheeseman, G. Scalmani, V. Barone, B. Mennucci, 
 G. A. Petersson, H. Nakatsuji, M. Caricato, X. Li, H. P. Hratchian, 
 A. F. Izmaylov, J. Bloino, G. Zheng, J. L. Sonnenberg, M. Hada, 
 M. Ehara, K. Toyota, R. Fukuda, J. Hasegawa, M. Ishida, T. Nakajima, 
 Y. Honda, O. Kitao, H. Nakai, T. Vreven, J. A. Montgomery, Jr., 
 J. E. Peralta, F. Ogliaro, M. Bearpark, J. J. Heyd, E. Brothers, 
 K. N. Kudin, V. N. Staroverov, T. Keith, R. Kobayashi, J. Normand, 
 K. Raghavachari, A. Rendell, J. C. Burant, S. S. Iyengar, J. Tomasi, 
 M. Cossi, N. Rega, J. M. Millam, M. Klene, J. E. Knox, J. B. Cross, 
 V. Bakken, C. Adamo, J. Jaramillo, R. Gomperts, R. E. Stratmann, 
 O. Yazyev, A. J. Austin, R. Cammi, C. Pomelli, J. W. Ochterski, 
 R. L. Martin, K. Morokuma, V. G. Zakrzewski, G. A. Voth, 
 P. Salvador, J. J. Dannenberg, S. Dapprich, A. D. Daniels, 
 O. Farkas, J. B. Foresman, J. V. Ortiz, J. Cioslowski, 
 and D. J. Fox, Gaussian, Inc., Wallingford CT, 2013.
 
 ******************************************
 Gaussian 09:  IA32W-G09RevD.01 24-Apr-2013
                12-Feb-2022 
 ******************************************
 %chk=D:\mindmap\gaussian\calculate\opt_freq\ch3cocl\ch3cocl.chk
 %nprocshared=4
 Will use up to    4 processors via shared memory.
 %mem=1GB
 ----------------------------------------------------
 # opt freq apfd/6-311+g(2d,p) pop=full int=ultrafine
 ----------------------------------------------------
 1/14=-1,18=20,19=15,26=4,38=1/1,3;
 2/9=110,12=2,17=6,18=5,40=1/2;
 3/5=4,6=6,7=112,11=2,16=1,25=1,30=1,71=1,74=-44,75=-5/1,2,3;
 4//1;
 5/5=2,38=5/2;
 6/7=3,28=1/1;
 7//1,2,3,16;
 1/14=-1,18=20,19=15,26=4/3(2);
 2/9=110/2;
 99//99;
 2/9=110/2;
 3/5=4,6=6,7=112,11=2,16=1,25=1,30=1,71=1,74=-44,75=-5/1,2,3;
 4/5=5,16=3,69=1/1;
 5/5=2,38=5/2;
 7//1,2,3,16;
 1/14=-1,18=20,19=15,26=4/3(-5);
 2/9=110/2;
 6/7=3,19=2,28=1/1;
 99/9=1/99;
 ------------
 opt freq(GC)
 ------------
 Symbolic Z-matrix:
 Charge =  0 Multiplicity = 1
 H
 C                    1     1.07 
 N                    2     1.16     1     180. 
 

 GradGradGradGradGradGradGradGradGradGradGradGradGradGradGradGradGradGrad
 Berny optimization.
 Initialization pass.
                           ----------------------------
                           !    Initial Parameters    !
                           ! (Angstroms and Degrees)  !
 --------------------------                            --------------------------
 ! Name  Definition              Value          Derivative Info.                !
 --------------------------------------------------------------------------------
 ! R1    R(1,2)                  1.07           estimate D2E/DX2                !
 ! R2    R(2,3)                  1.16           estimate D2E/DX2                !
 ! A1    L(1,2,3,-1,-1)        180.0            estimate D2E/DX2                !
 ! A2    L(1,2,3,-2,-2)        180.0            estimate D2E/DX2                !
 --------------------------------------------------------------------------------
 Trust Radius=3.00D-01 FncErr=1.00D-07 GrdErr=1.00D-06
 Number of steps in this run=     20 maximum allowed number of steps=    100.
 GradGradGradGradGradGradGradGradGradGradGradGradGradGradGradGradGradGrad

                          Input orientation:                          
 ---------------------------------------------------------------------
 Center     Atomic      Atomic             Coordinates (Angstroms)
 Number     Number       Type             X           Y           Z
 ---------------------------------------------------------------------
      1          1           0        0.000000    0.000000    0.000000
      2          6           0        0.000000    0.000000    1.070000
      3          7           0        0.000000    0.000000    2.230000
 ---------------------------------------------------------------------
                    Distance matrix (angstroms):
                    1          2          3
     1  H    0.000000
     2  C    1.070000   0.000000
     3  N    2.230000   1.160000   0.000000
 Stoichiometry    CHN
 Framework group  C*V[C*(HCN)]
 Deg. of freedom     2
 Full point group                 C*V     NOp   4
 Largest Abelian subgroup         C2V     NOp   4
 Largest concise Abelian subgroup C1      NOp   1
                         Standard orientation:                         
 ---------------------------------------------------------------------
 Center     Atomic      Atomic             Coordinates (Angstroms)
 Number     Number       Type             X           Y           Z
 ---------------------------------------------------------------------
      1          1           0        0.000000    0.000000   -1.573571
      2          6           0        0.000000    0.000000   -0.503571
      3          7           0        0.000000    0.000000    0.656429
 ---------------------------------------------------------------------
 Rotational constants (GHZ):      0.0000000     44.0151217     44.0151217
 Standard basis: 6-311+G(2d,p) (5D, 7F)
 There are    34 symmetry adapted cartesian basis functions of A1  symmetry.
 There are     4 symmetry adapted cartesian basis functions of A2  symmetry.
 There are    13 symmetry adapted cartesian basis functions of B1  symmetry.
 There are    13 symmetry adapted cartesian basis functions of B2  symmetry.
 There are    30 symmetry adapted basis functions of A1  symmetry.
 There are     4 symmetry adapted basis functions of A2  symmetry.
 There are    13 symmetry adapted basis functions of B1  symmetry.
 There are    13 symmetry adapted basis functions of B2  symmetry.
    60 basis functions,    92 primitive gaussians,    64 cartesian basis functions
     7 alpha electrons        7 beta electrons
       nuclear repulsion energy        23.7883076589 Hartrees.
 NAtoms=    3 NActive=    3 NUniq=    3 SFac= 1.00D+00 NAtFMM=   60 NAOKFM=F Big=F
 Integral buffers will be    262144 words long.
 Raffenetti 2 integral format.
 Two-electron integral symmetry is turned on.
 R6APFD:  NTU= -4 IXU= 1 FactS= 1.050
 Nuclear repulsion after empirical dispersion term =       23.7882862002 Hartrees.
 One-electron integrals computed using PRISM.
 NBasis=    60 RedAO= T EigKep=  1.21D-03  NBF=    30     4    13    13
 NBsUse=    60 1.00D-06 EigRej= -1.00D+00 NBFU=    30     4    13    13
 ExpMin= 4.38D-02 ExpMax= 6.29D+03 ExpMxC= 9.49D+02 IAcc=3 IRadAn=         5 AccDes= 0.00D+00
 Harris functional with IExCor= 3731 and IRadAn=       5 diagonalized for initial guess.
 HarFok:  IExCor= 3731 AccDes= 0.00D+00 IRadAn=         5 IDoV= 1 UseB2=F ITyADJ=14
 ICtDFT=  3500011 ScaDFX=  1.000000  1.000000  1.000000  1.000000
 FoFCou: FMM=F IPFlag=           0 FMFlag=      100000 FMFlg1=           0
         NFxFlg=           0 DoJE=T BraDBF=F KetDBF=T FulRan=T
         wScrn=  0.000000 ICntrl=     500 IOpCl=  0 I1Cent=   200000004 NGrid=           0
         NMat0=    1 NMatS0=      1 NMatT0=    0 NMatD0=    1 NMtDS0=    0 NMtDT0=    0
 Petite list used in FoFCou.
 Initial guess orbital symmetries:
       Occupied  (SG) (SG) (SG) (SG) (SG) (PI) (PI)
       Virtual   (PI) (PI) (SG) (SG) (PI) (PI) (SG) (PI) (PI) (SG)
                 (SG) (SG) (PI) (PI) (SG) (DLTA) (DLTA) (SG) (SG)
                 (PI) (PI) (PI) (PI) (SG) (DLTA) (DLTA) (SG) (PI)
                 (PI) (SG) (SG) (PI) (PI) (SG) (SG) (PI) (PI) (PI)
                 (PI) (DLTA) (DLTA) (SG) (SG) (PI) (PI) (SG) (DLTA)
                 (DLTA) (PI) (PI) (SG) (SG) (SG)
 The electronic state of the initial guess is 1-SG.
 Keep R1 ints in memory in symmetry-blocked form, NReq=2593568.
 Requested convergence on RMS density matrix=1.00D-08 within 128 cycles.
 Requested convergence on MAX density matrix=1.00D-06.
 Requested convergence on             energy=1.00D-06.
 No special actions if energy rises.
 SCF Done:  E(RAPFD) =  -93.3674392336     A.U. after    9 cycles
            NFock=  9  Conv=0.33D-08     -V/T= 2.0042

 **********************************************************************

            Population analysis using the SCF density.

 **********************************************************************

 Orbital symmetries:
       Occupied  (SG) (SG) (SG) (SG) (SG) (PI) (PI)
       Virtual   (PI) (PI) (SG) (SG) (PI) (PI) (SG) (SG) (PI) (PI)
                 (SG) (SG) (PI) (PI) (SG) (DLTA) (DLTA) (SG) (SG)
                 (PI) (PI) (PI) (PI) (SG) (SG) (DLTA) (DLTA) (PI)
                 (PI) (SG) (SG) (PI) (PI) (SG) (SG) (PI) (PI) (PI)
                 (PI) (DLTA) (DLTA) (SG) (SG) (PI) (PI) (SG) (DLTA)
                 (DLTA) (PI) (PI) (SG) (SG) (SG)
 The electronic state is 1-SG.
 Alpha  occ. eigenvalues --  -14.38041 -10.25725  -0.94493  -0.62492  -0.40120
 Alpha  occ. eigenvalues --   -0.37781  -0.37781
 Alpha virt. eigenvalues --   -0.00465  -0.00465   0.01901   0.03663   0.07722
 Alpha virt. eigenvalues --    0.07722   0.11919   0.18163   0.18955   0.18955
 Alpha virt. eigenvalues --    0.24590   0.36943   0.52622   0.52622   0.57937
 Alpha virt. eigenvalues --    0.62011   0.62011   0.72866   0.75665   0.76875
 Alpha virt. eigenvalues --    0.76875   0.85167   0.85167   0.91047   1.15612
 Alpha virt. eigenvalues --    1.15947   1.15947   1.48001   1.48001   1.64573
 Alpha virt. eigenvalues --    2.00833   2.07931   2.07931   2.57328   2.65021
 Alpha virt. eigenvalues --    2.76486   2.76486   3.19446   3.19446   3.22025
 Alpha virt. eigenvalues --    3.22025   3.34219   3.74904   3.96985   3.96985
 Alpha virt. eigenvalues --    4.58101   4.78063   4.78063   5.05897   5.05897
 Alpha virt. eigenvalues --    5.62960  24.18810  35.72755
     Molecular Orbital Coefficients:
                           1         2         3         4         5
                           O         O         O         O         O
     Eigenvalues --   -14.38041 -10.25725  -0.94493  -0.62492  -0.40120
   1 1   H  1S          0.00003  -0.00040   0.01929   0.18553   0.05197
   2        2S          0.00512  -0.00721   0.00519   0.27128   0.08556
   3        3S          0.00185   0.00835  -0.00654   0.01384   0.03010
   4        4PX         0.00000   0.00000   0.00000   0.00000   0.00000
   5        4PY         0.00000   0.00000   0.00000   0.00000   0.00000
   6        4PZ         0.00082  -0.00268  -0.00035   0.03424   0.00799
   7 2   C  1S         -0.00002   0.56296  -0.08258  -0.07112   0.03740
   8        2S          0.00038   0.46304  -0.12769  -0.11305   0.06122
   9        2PX         0.00000   0.00000   0.00000   0.00000   0.00000
  10        2PY         0.00000   0.00000   0.00000   0.00000   0.00000
  11        2PZ         0.00021  -0.00081   0.10706  -0.16023  -0.12429
  12        3S          0.00044   0.02188   0.32280   0.30282  -0.18735
  13        3PX         0.00000   0.00000   0.00000   0.00000   0.00000
  14        3PY         0.00000   0.00000   0.00000   0.00000   0.00000
  15        3PZ        -0.00077   0.00611   0.11189  -0.20701  -0.16202
  16        4S         -0.00121   0.02408   0.12461   0.25513  -0.15050
  17        4PX         0.00000   0.00000   0.00000   0.00000   0.00000
  18        4PY         0.00000   0.00000   0.00000   0.00000   0.00000
  19        4PZ         0.00593   0.01597   0.00271  -0.08628  -0.08902
  20        5S         -0.00261   0.00057   0.02840   0.00779  -0.00791
  21        5PX         0.00000   0.00000   0.00000   0.00000   0.00000
  22        5PY         0.00000   0.00000   0.00000   0.00000   0.00000
  23        5PZ        -0.00073   0.00269   0.00769  -0.01625  -0.00149
  24        6D 0       -0.00072   0.00216   0.01972   0.00624  -0.00741
  25        6D+1        0.00000   0.00000   0.00000   0.00000   0.00000
  26        6D-1        0.00000   0.00000   0.00000   0.00000   0.00000
  27        6D+2        0.00000   0.00000   0.00000   0.00000   0.00000
  28        6D-2        0.00000   0.00000   0.00000   0.00000   0.00000
  29        7D 0       -0.00352   0.00797   0.01673   0.00047   0.00383
  30        7D+1        0.00000   0.00000   0.00000   0.00000   0.00000
  31        7D-1        0.00000   0.00000   0.00000   0.00000   0.00000
  32        7D+2        0.00000   0.00000   0.00000   0.00000   0.00000
  33        7D-2        0.00000   0.00000   0.00000   0.00000   0.00000
  34 3   N  1S          0.55757  -0.00031  -0.10045   0.03902  -0.06283
  35        2S          0.46585   0.00006  -0.15871   0.06293  -0.10171
  36        2PX         0.00000   0.00000   0.00000   0.00000   0.00000
  37        2PY         0.00000   0.00000   0.00000   0.00000   0.00000
  38        2PZ        -0.00130  -0.00102  -0.09960   0.00734   0.23702
  39        3S          0.01590  -0.00135   0.43189  -0.18074   0.29178
  40        3PX         0.00000   0.00000   0.00000   0.00000   0.00000
  41        3PY         0.00000   0.00000   0.00000   0.00000   0.00000
  42        3PZ        -0.00198   0.00554  -0.12879   0.00515   0.32841
  43        4S         -0.01126  -0.03313   0.25918  -0.14130   0.47587
  44        4PX         0.00000   0.00000   0.00000   0.00000   0.00000
  45        4PY         0.00000   0.00000   0.00000   0.00000   0.00000
  46        4PZ         0.00335   0.01466  -0.04336  -0.00683   0.19087
  47        5S          0.00410  -0.00698  -0.04623  -0.00187   0.09745
  48        5PX         0.00000   0.00000   0.00000   0.00000   0.00000
  49        5PY         0.00000   0.00000   0.00000   0.00000   0.00000
  50        5PZ        -0.00105   0.00016   0.01186   0.01080   0.01212
  51        6D 0        0.00067  -0.00029   0.01299  -0.00359  -0.01513
  52        6D+1        0.00000   0.00000   0.00000   0.00000   0.00000
  53        6D-1        0.00000   0.00000   0.00000   0.00000   0.00000
  54        6D+2        0.00000   0.00000   0.00000   0.00000   0.00000
  55        6D-2        0.00000   0.00000   0.00000   0.00000   0.00000
  56        7D 0       -0.00047  -0.00395   0.00983   0.00202  -0.00991
  57        7D+1        0.00000   0.00000   0.00000   0.00000   0.00000
  58        7D-1        0.00000   0.00000   0.00000   0.00000   0.00000
  59        7D+2        0.00000   0.00000   0.00000   0.00000   0.00000
  60        7D-2        0.00000   0.00000   0.00000   0.00000   0.00000
                           6         7         8         9        10
                           O         O         V         V         V
     Eigenvalues --    -0.37781  -0.37781  -0.00465  -0.00465   0.01901
   1 1   H  1S          0.00000   0.00000   0.00000   0.00000  -0.00672
   2        2S          0.00000   0.00000   0.00000   0.00000   0.23777
   3        3S          0.00000   0.00000   0.00000   0.00000  -0.22782
   4        4PX         0.01582   0.00000   0.02952   0.00000   0.00000
   5        4PY         0.00000   0.01582   0.00000   0.02952   0.00000
   6        4PZ         0.00000   0.00000   0.00000   0.00000  -0.01258
   7 2   C  1S          0.00000   0.00000   0.00000   0.00000   0.03464
   8        2S          0.00000   0.00000   0.00000   0.00000   0.05923
   9        2PX         0.18770   0.00000   0.16311   0.00000   0.00000
  10        2PY         0.00000   0.18770   0.00000   0.16311   0.00000
  11        2PZ         0.00000   0.00000   0.00000   0.00000   0.07459
  12        3S          0.00000   0.00000   0.00000   0.00000  -0.18673
  13        3PX         0.28468   0.00000   0.25429   0.00000   0.00000
  14        3PY         0.00000   0.28468   0.00000   0.25429   0.00000
  15        3PZ         0.00000   0.00000   0.00000   0.00000   0.10571
  16        4S          0.00000   0.00000   0.00000   0.00000  -0.73802
  17        4PX         0.19694   0.00000   0.45913   0.00000   0.00000
  18        4PY         0.00000   0.19694   0.00000   0.45913   0.00000
  19        4PZ         0.00000   0.00000   0.00000   0.00000   0.07937
  20        5S          0.00000   0.00000   0.00000   0.00000   1.41879
  21        5PX         0.02507   0.00000   0.67463   0.00000   0.00000
  22        5PY         0.00000   0.02507   0.00000   0.67463   0.00000
  23        5PZ         0.00000   0.00000   0.00000   0.00000  -0.89327
  24        6D 0        0.00000   0.00000   0.00000   0.00000   0.00361
  25        6D+1        0.01727   0.00000  -0.01795   0.00000   0.00000
  26        6D-1        0.00000   0.01727   0.00000  -0.01795   0.00000
  27        6D+2        0.00000   0.00000   0.00000   0.00000   0.00000
  28        6D-2        0.00000   0.00000   0.00000   0.00000   0.00000
  29        7D 0        0.00000   0.00000   0.00000   0.00000  -0.08259
  30        7D+1        0.01107   0.00000  -0.09949   0.00000   0.00000
  31        7D-1        0.00000   0.01107   0.00000  -0.09949   0.00000
  32        7D+2        0.00000   0.00000   0.00000   0.00000   0.00000
  33        7D-2        0.00000   0.00000   0.00000   0.00000   0.00000
  34 3   N  1S          0.00000   0.00000   0.00000   0.00000  -0.00193
  35        2S          0.00000   0.00000   0.00000   0.00000  -0.00359
  36        2PX         0.20621   0.00000  -0.19391   0.00000   0.00000
  37        2PY         0.00000   0.20621   0.00000  -0.19391   0.00000
  38        2PZ         0.00000   0.00000   0.00000   0.00000  -0.03088
  39        3S          0.00000   0.00000   0.00000   0.00000   0.01891
  40        3PX         0.31579   0.00000  -0.29174   0.00000   0.00000
  41        3PY         0.00000   0.31579   0.00000  -0.29174   0.00000
  42        3PZ         0.00000   0.00000   0.00000   0.00000  -0.05408
  43        4S          0.00000   0.00000   0.00000   0.00000   0.24823
  44        4PX         0.23834   0.00000  -0.32505   0.00000   0.00000
  45        4PY         0.00000   0.23834   0.00000  -0.32505   0.00000
  46        4PZ         0.00000   0.00000   0.00000   0.00000  -0.17395
  47        5S          0.00000   0.00000   0.00000   0.00000  -0.22690
  48        5PX         0.00336   0.00000  -0.55194   0.00000   0.00000
  49        5PY         0.00000   0.00336   0.00000  -0.55194   0.00000
  50        5PZ         0.00000   0.00000   0.00000   0.00000   0.41375
  51        6D 0        0.00000   0.00000   0.00000   0.00000   0.00152
  52        6D+1       -0.01438   0.00000  -0.00330   0.00000   0.00000
  53        6D-1        0.00000  -0.01438   0.00000  -0.00330   0.00000
  54        6D+2        0.00000   0.00000   0.00000   0.00000   0.00000
  55        6D-2        0.00000   0.00000   0.00000   0.00000   0.00000
  56        7D 0        0.00000   0.00000   0.00000   0.00000   0.00472
  57        7D+1       -0.03695   0.00000  -0.02253   0.00000   0.00000
  58        7D-1        0.00000  -0.03695   0.00000  -0.02253   0.00000
  59        7D+2        0.00000   0.00000   0.00000   0.00000   0.00000
  60        7D-2        0.00000   0.00000   0.00000   0.00000   0.00000
                          11        12        13        14        15
                           V         V         V         V         V
     Eigenvalues --     0.03663   0.07722   0.07722   0.11919   0.18163
   1 1   H  1S         -0.07605   0.00000   0.00000  -0.09549  -0.07000
   2        2S         -0.23355   0.00000   0.00000  -0.15562  -0.36088
   3        3S         -0.32339   0.00000   0.00000  -2.78045  -1.91667
   4        4PX         0.00000  -0.01008   0.00000   0.00000   0.00000
   5        4PY         0.00000   0.00000  -0.01008   0.00000   0.00000
   6        4PZ         0.00359   0.00000   0.00000   0.04295  -0.01000
   7 2   C  1S         -0.01473   0.00000   0.00000  -0.02080  -0.04409
   8        2S         -0.02456   0.00000   0.00000  -0.03363  -0.07191
   9        2PX         0.00000  -0.14560   0.00000   0.00000   0.00000
  10        2PY         0.00000   0.00000  -0.14560   0.00000   0.00000
  11        2PZ        -0.03242   0.00000   0.00000  -0.07679  -0.03978
  12        3S          0.03795   0.00000   0.00000   0.10909   0.09865
  13        3PX         0.00000  -0.19989   0.00000   0.00000   0.00000
  14        3PY         0.00000   0.00000  -0.19989   0.00000   0.00000
  15        3PZ        -0.02387   0.00000   0.00000  -0.09762  -0.09703
  16        4S          1.20662   0.00000   0.00000  -0.76790   1.65290
  17        4PX         0.00000  -0.54542   0.00000   0.00000   0.00000
  18        4PY         0.00000   0.00000  -0.54542   0.00000   0.00000
  19        4PZ         0.33832   0.00000   0.00000  -1.55819  -0.57777
  20        5S          3.33550   0.00000   0.00000  -2.00444  -1.17468
  21        5PX         0.00000   1.27912   0.00000   0.00000   0.00000
  22        5PY         0.00000   0.00000   1.27912   0.00000   0.00000
  23        5PZ         1.53926   0.00000   0.00000  -2.03467  -2.44674
  24        6D 0       -0.01891   0.00000   0.00000  -0.02340  -0.00912
  25        6D+1        0.00000   0.00330   0.00000   0.00000   0.00000
  26        6D-1        0.00000   0.00000   0.00330   0.00000   0.00000
  27        6D+2        0.00000   0.00000   0.00000   0.00000   0.00000
  28        6D-2        0.00000   0.00000   0.00000   0.00000   0.00000
  29        7D 0        0.02739   0.00000   0.00000  -0.20492   0.06806
  30        7D+1        0.00000  -0.00525   0.00000   0.00000   0.00000
  31        7D-1        0.00000   0.00000  -0.00525   0.00000   0.00000
  32        7D+2        0.00000   0.00000   0.00000   0.00000   0.00000
  33        7D-2        0.00000   0.00000   0.00000   0.00000   0.00000
  34 3   N  1S          0.03082   0.00000   0.00000   0.00500   0.02286
  35        2S          0.05190   0.00000   0.00000   0.00819   0.03832
  36        2PX         0.00000   0.03995   0.00000   0.00000   0.00000
  37        2PY         0.00000   0.00000   0.03995   0.00000   0.00000
  38        2PZ         0.01910   0.00000   0.00000   0.09571   0.00036
  39        3S         -0.18300   0.00000   0.00000  -0.02740  -0.13944
  40        3PX         0.00000   0.04993   0.00000   0.00000   0.00000
  41        3PY         0.00000   0.00000   0.04993   0.00000   0.00000
  42        3PZ         0.03513   0.00000   0.00000   0.10281   0.06806
  43        4S         -0.57010   0.00000   0.00000   1.02956  -0.37592
  44        4PX         0.00000   0.20300   0.00000   0.00000   0.00000
  45        4PY         0.00000   0.00000   0.20300   0.00000   0.00000
  46        4PZ         0.29759   0.00000   0.00000  -0.34438  -0.25365
  47        5S         -3.29794   0.00000   0.00000   4.26689   2.62185
  48        5PX         0.00000  -0.18322   0.00000   0.00000   0.00000
  49        5PY         0.00000   0.00000  -0.18322   0.00000   0.00000
  50        5PZ         0.43440   0.00000   0.00000  -1.39938   1.51023
  51        6D 0       -0.00072   0.00000   0.00000  -0.00809   0.00210
  52        6D+1        0.00000   0.00877   0.00000   0.00000   0.00000
  53        6D-1        0.00000   0.00000   0.00877   0.00000   0.00000
  54        6D+2        0.00000   0.00000   0.00000   0.00000   0.00000
  55        6D-2        0.00000   0.00000   0.00000   0.00000   0.00000
  56        7D 0       -0.02980   0.00000   0.00000   0.01647   0.04575
  57        7D+1        0.00000   0.00587   0.00000   0.00000   0.00000
  58        7D-1        0.00000   0.00000   0.00587   0.00000   0.00000
  59        7D+2        0.00000   0.00000   0.00000   0.00000   0.00000
  60        7D-2        0.00000   0.00000   0.00000   0.00000   0.00000
                          16        17        18        19        20
                           V         V         V         V         V
     Eigenvalues --     0.18955   0.18955   0.24590   0.36943   0.52622
   1 1   H  1S          0.00000   0.00000  -0.01760   0.15828   0.00000
   2        2S          0.00000   0.00000  -0.38215   1.53341   0.00000
   3        3S          0.00000   0.00000   1.17655  -4.64704   0.00000
   4        4PX         0.01147   0.00000   0.00000   0.00000   0.00000
   5        4PY         0.00000   0.01147   0.00000   0.00000   0.02091
   6        4PZ         0.00000   0.00000  -0.03501   0.11481   0.00000
   7 2   C  1S          0.00000   0.00000   0.02110   0.02066   0.00000
   8        2S          0.00000   0.00000   0.03334   0.04290   0.00000
   9        2PX         0.03312   0.00000   0.00000   0.00000   0.00000
  10        2PY         0.00000   0.03312   0.00000   0.00000  -0.24639
  11        2PZ         0.00000   0.00000   0.04400  -0.01986   0.00000
  12        3S          0.00000   0.00000  -0.11737  -0.00867   0.00000
  13        3PX         0.10851   0.00000   0.00000   0.00000   0.00000
  14        3PY         0.00000   0.10851   0.00000   0.00000  -0.86745
  15        3PZ         0.00000   0.00000  -0.04007  -0.12273   0.00000
  16        4S          0.00000   0.00000  -2.74528  -6.21096   0.00000
  17        4PX         0.12386   0.00000   0.00000   0.00000   0.00000
  18        4PY         0.00000   0.12386   0.00000   0.00000   1.69576
  19        4PZ         0.00000   0.00000  -0.74382  -4.05353   0.00000
  20        5S          0.00000   0.00000  -6.38789  -3.16697   0.00000
  21        5PX        -1.48423   0.00000   0.00000   0.00000   0.00000
  22        5PY         0.00000  -1.48423   0.00000   0.00000  -0.64810
  23        5PZ         0.00000   0.00000  -1.56613  -2.82700   0.00000
  24        6D 0        0.00000   0.00000  -0.01612   0.04281   0.00000
  25        6D+1       -0.01326   0.00000   0.00000   0.00000   0.00000
  26        6D-1        0.00000  -0.01326   0.00000   0.00000  -0.00716
  27        6D+2        0.00000   0.00000   0.00000   0.00000   0.00000
  28        6D-2        0.00000   0.00000   0.00000   0.00000   0.00000
  29        7D 0        0.00000   0.00000  -0.05882  -0.60818   0.00000
  30        7D+1        0.03153   0.00000   0.00000   0.00000   0.00000
  31        7D-1        0.00000   0.03153   0.00000   0.00000  -0.04038
  32        7D+2        0.00000   0.00000   0.00000   0.00000   0.00000
  33        7D-2        0.00000   0.00000   0.00000   0.00000   0.00000
  34 3   N  1S          0.00000   0.00000   0.03748  -0.00650   0.00000
  35        2S          0.00000   0.00000   0.06059  -0.01123   0.00000
  36        2PX        -0.14155   0.00000   0.00000   0.00000   0.00000
  37        2PY         0.00000  -0.14155   0.00000   0.00000   0.01940
  38        2PZ         0.00000   0.00000  -0.02492  -0.11513   0.00000
  39        3S          0.00000   0.00000  -0.18692   0.01954   0.00000
  40        3PX        -0.15525   0.00000   0.00000   0.00000   0.00000
  41        3PY         0.00000  -0.15525   0.00000   0.00000   0.03888
  42        3PZ         0.00000   0.00000  -0.00779  -0.29239   0.00000
  43        4S          0.00000   0.00000  -0.24547   4.16110   0.00000
  44        4PX        -0.65708   0.00000   0.00000   0.00000   0.00000
  45        4PY         0.00000  -0.65708   0.00000   0.00000  -0.17777
  46        4PZ         0.00000   0.00000  -0.82849  -2.38630   0.00000
  47        5S          0.00000   0.00000   8.68308   8.57183   0.00000
  48        5PX         2.20877   0.00000   0.00000   0.00000   0.00000
  49        5PY         0.00000   2.20877   0.00000   0.00000  -0.10741
  50        5PZ         0.00000   0.00000  -1.63431  -1.53999   0.00000
  51        6D 0        0.00000   0.00000  -0.00999  -0.00789   0.00000
  52        6D+1        0.00153   0.00000   0.00000   0.00000   0.00000
  53        6D-1        0.00000   0.00153   0.00000   0.00000   0.00584
  54        6D+2        0.00000   0.00000   0.00000   0.00000   0.00000
  55        6D-2        0.00000   0.00000   0.00000   0.00000   0.00000
  56        7D 0        0.00000   0.00000   0.06682   0.10474   0.00000
  57        7D+1        0.03870   0.00000   0.00000   0.00000   0.00000
  58        7D-1        0.00000   0.03870   0.00000   0.00000   0.12032
  59        7D+2        0.00000   0.00000   0.00000   0.00000   0.00000
  60        7D-2        0.00000   0.00000   0.00000   0.00000   0.00000
                          21        22        23        24        25
                           V         V         V         V         V
     Eigenvalues --     0.52622   0.57937   0.62011   0.62011   0.72866
   1 1   H  1S          0.00000  -0.03512   0.00000   0.00000   0.05627
   2        2S          0.00000   1.55965   0.00000   0.00000  -1.39838
   3        3S          0.00000   3.54042   0.00000   0.00000  -0.07908
   4        4PX         0.02091   0.00000   0.00000   0.00000   0.00000
   5        4PY         0.00000   0.00000   0.00000   0.00000   0.00000
   6        4PZ         0.00000   0.10784   0.00000   0.00000  -0.25074
   7 2   C  1S          0.00000  -0.02709   0.00000   0.00000   0.10251
   8        2S          0.00000  -0.04856   0.00000   0.00000   0.19428
   9        2PX        -0.24639   0.00000   0.00000   0.00000   0.00000
  10        2PY         0.00000   0.00000   0.00000   0.00000   0.00000
  11        2PZ         0.00000  -0.13006   0.00000   0.00000  -0.10244
  12        3S          0.00000   0.36501   0.00000   0.00000  -1.67189
  13        3PX        -0.86745   0.00000   0.00000   0.00000   0.00000
  14        3PY         0.00000   0.00000   0.00000   0.00000   0.00000
  15        3PZ         0.00000  -0.47462   0.00000   0.00000  -0.05524
  16        4S          0.00000   0.26475   0.00000   0.00000   7.96814
  17        4PX         1.69576   0.00000   0.00000   0.00000   0.00000
  18        4PY         0.00000   0.00000   0.00000   0.00000   0.00000
  19        4PZ         0.00000   5.54608   0.00000   0.00000   2.29701
  20        5S          0.00000   2.06628   0.00000   0.00000   1.47816
  21        5PX        -0.64810   0.00000   0.00000   0.00000   0.00000
  22        5PY         0.00000   0.00000   0.00000   0.00000   0.00000
  23        5PZ         0.00000   1.27139   0.00000   0.00000  -0.02871
  24        6D 0        0.00000  -0.02268   0.00000   0.00000   0.01859
  25        6D+1       -0.00716   0.00000   0.00000   0.00000   0.00000
  26        6D-1        0.00000   0.00000   0.00000   0.00000   0.00000
  27        6D+2        0.00000   0.00000   0.00000   0.00640   0.00000
  28        6D-2        0.00000   0.00000   0.00640   0.00000   0.00000
  29        7D 0        0.00000  -0.26558   0.00000   0.00000   1.42578
  30        7D+1       -0.04038   0.00000   0.00000   0.00000   0.00000
  31        7D-1        0.00000   0.00000   0.00000   0.00000   0.00000
  32        7D+2        0.00000   0.00000   0.00000   0.91131   0.00000
  33        7D-2        0.00000   0.00000   0.91131   0.00000   0.00000
  34 3   N  1S          0.00000   0.01401   0.00000   0.00000  -0.03305
  35        2S          0.00000   0.01926   0.00000   0.00000  -0.05067
  36        2PX         0.01940   0.00000   0.00000   0.00000   0.00000
  37        2PY         0.00000   0.00000   0.00000   0.00000   0.00000
  38        2PZ         0.00000   0.05412   0.00000   0.00000  -0.07512
  39        3S          0.00000   0.03081   0.00000   0.00000   0.02287
  40        3PX         0.03888   0.00000   0.00000   0.00000   0.00000
  41        3PY         0.00000   0.00000   0.00000   0.00000   0.00000
  42        3PZ         0.00000   0.04347   0.00000   0.00000   0.33451
  43        4S          0.00000  -2.77641   0.00000   0.00000  -4.22373
  44        4PX        -0.17777   0.00000   0.00000   0.00000   0.00000
  45        4PY         0.00000   0.00000   0.00000   0.00000   0.00000
  46        4PZ         0.00000   0.58451   0.00000   0.00000   0.85140
  47        5S          0.00000  -4.52516   0.00000   0.00000  -3.45904
  48        5PX        -0.10741   0.00000   0.00000   0.00000   0.00000
  49        5PY         0.00000   0.00000   0.00000   0.00000   0.00000
  50        5PZ         0.00000   0.78398   0.00000   0.00000   1.89322
  51        6D 0        0.00000  -0.01428   0.00000   0.00000  -0.03597
  52        6D+1        0.00584   0.00000   0.00000   0.00000   0.00000
  53        6D-1        0.00000   0.00000   0.00000   0.00000   0.00000
  54        6D+2        0.00000   0.00000   0.00000   0.01197   0.00000
  55        6D-2        0.00000   0.00000   0.01197   0.00000   0.00000
  56        7D 0        0.00000  -0.04089   0.00000   0.00000  -0.27962
  57        7D+1        0.12032   0.00000   0.00000   0.00000   0.00000
  58        7D-1        0.00000   0.00000   0.00000   0.00000   0.00000
  59        7D+2        0.00000   0.00000   0.00000   0.18108   0.00000
  60        7D-2        0.00000   0.00000   0.18108   0.00000   0.00000
                          26        27        28        29        30
                           V         V         V         V         V
     Eigenvalues --     0.75665   0.76875   0.76875   0.85167   0.85167
   1 1   H  1S          0.06800   0.00000   0.00000   0.00000   0.00000
   2        2S          1.73147   0.00000   0.00000   0.00000   0.00000
   3        3S          0.92096   0.00000   0.00000   0.00000   0.00000
   4        4PX         0.00000   0.10653   0.00000  -0.12935   0.00000
   5        4PY         0.00000   0.00000   0.10653   0.00000  -0.12935
   6        4PZ        -0.05690   0.00000   0.00000   0.00000   0.00000
   7 2   C  1S          0.02644   0.00000   0.00000   0.00000   0.00000
   8        2S          0.04287   0.00000   0.00000   0.00000   0.00000
   9        2PX         0.00000   0.02845   0.00000   0.03634   0.00000
  10        2PY         0.00000   0.00000   0.02845   0.00000   0.03634
  11        2PZ         0.16660   0.00000   0.00000   0.00000   0.00000
  12        3S         -0.20729   0.00000   0.00000   0.00000   0.00000
  13        3PX         0.00000   0.05912   0.00000  -0.04878   0.00000
  14        3PY         0.00000   0.00000   0.05912   0.00000  -0.04878
  15        3PZ         1.15542   0.00000   0.00000   0.00000   0.00000
  16        4S          9.78592   0.00000   0.00000   0.00000   0.00000
  17        4PX         0.00000  -1.08894   0.00000  -0.32388   0.00000
  18        4PY         0.00000   0.00000  -1.08894   0.00000  -0.32388
  19        4PZ         6.92200   0.00000   0.00000   0.00000   0.00000
  20        5S          3.99712   0.00000   0.00000   0.00000   0.00000
  21        5PX         0.00000   0.40752   0.00000   0.65468   0.00000
  22        5PY         0.00000   0.00000   0.40752   0.00000   0.65468
  23        5PZ         1.21352   0.00000   0.00000   0.00000   0.00000
  24        6D 0        0.00073   0.00000   0.00000   0.00000   0.00000
  25        6D+1        0.00000  -0.00799   0.00000  -0.00454   0.00000
  26        6D-1        0.00000   0.00000  -0.00799   0.00000  -0.00454
  27        6D+2        0.00000   0.00000   0.00000   0.00000   0.00000
  28        6D-2        0.00000   0.00000   0.00000   0.00000   0.00000
  29        7D 0        0.39682   0.00000   0.00000   0.00000   0.00000
  30        7D+1        0.00000  -1.26741   0.00000   0.13052   0.00000
  31        7D-1        0.00000   0.00000  -1.26741   0.00000   0.13052
  32        7D+2        0.00000   0.00000   0.00000   0.00000   0.00000
  33        7D-2        0.00000   0.00000   0.00000   0.00000   0.00000
  34 3   N  1S          0.04857   0.00000   0.00000   0.00000   0.00000
  35        2S          0.08233   0.00000   0.00000   0.00000   0.00000
  36        2PX         0.00000  -0.01197   0.00000  -0.25792   0.00000
  37        2PY         0.00000   0.00000  -0.01197   0.00000  -0.25792
  38        2PZ         0.00246   0.00000   0.00000   0.00000   0.00000
  39        3S         -0.12335   0.00000   0.00000   0.00000   0.00000
  40        3PX         0.00000  -0.01238   0.00000  -0.90637   0.00000
  41        3PY         0.00000   0.00000  -0.01238   0.00000  -0.90637
  42        3PZ         0.06841   0.00000   0.00000   0.00000   0.00000
  43        4S         -7.92149   0.00000   0.00000   0.00000   0.00000
  44        4PX         0.00000   1.60990   0.00000   1.78367   0.00000
  45        4PY         0.00000   0.00000   1.60990   0.00000   1.78367
  46        4PZ         4.74857   0.00000   0.00000   0.00000   0.00000
  47        5S         -8.10169   0.00000   0.00000   0.00000   0.00000
  48        5PX         0.00000  -0.53585   0.00000  -1.23043   0.00000
  49        5PY         0.00000   0.00000  -0.53585   0.00000  -1.23043
  50        5PZ         1.39939   0.00000   0.00000   0.00000   0.00000
  51        6D 0        0.02835   0.00000   0.00000   0.00000   0.00000
  52        6D+1        0.00000   0.03697   0.00000   0.01325   0.00000
  53        6D-1        0.00000   0.00000   0.03697   0.00000   0.01325
  54        6D+2        0.00000   0.00000   0.00000   0.00000   0.00000
  55        6D-2        0.00000   0.00000   0.00000   0.00000   0.00000
  56        7D 0       -0.28396   0.00000   0.00000   0.00000   0.00000
  57        7D+1        0.00000  -0.06192   0.00000  -0.04194   0.00000
  58        7D-1        0.00000   0.00000  -0.06192   0.00000  -0.04194
  59        7D+2        0.00000   0.00000   0.00000   0.00000   0.00000
  60        7D-2        0.00000   0.00000   0.00000   0.00000   0.00000
                          31        32        33        34        35
                           V         V         V         V         V
     Eigenvalues --     0.91047   1.15612   1.15947   1.15947   1.48001
   1 1   H  1S          0.00520  -0.14216   0.00000   0.00000   0.00000
   2        2S         -1.41112   1.20866   0.00000   0.00000   0.00000
   3        3S          3.69202  -2.63171   0.00000   0.00000   0.00000
   4        4PX         0.00000   0.00000   0.00000   0.00000  -0.48877
   5        4PY         0.00000   0.00000   0.00000   0.00000   0.00000
   6        4PZ         0.01543   0.17153   0.00000   0.00000   0.00000
   7 2   C  1S          0.00138   0.03445   0.00000   0.00000   0.00000
   8        2S         -0.01603   0.08016   0.00000   0.00000   0.00000
   9        2PX         0.00000   0.00000   0.00000   0.00000   0.14903
  10        2PY         0.00000   0.00000   0.00000   0.00000   0.00000
  11        2PZ        -0.22937  -0.07350   0.00000   0.00000   0.00000
  12        3S          0.47879  -0.25668   0.00000   0.00000   0.00000
  13        3PX         0.00000   0.00000   0.00000   0.00000   0.60743
  14        3PY         0.00000   0.00000   0.00000   0.00000   0.00000
  15        3PZ        -0.00813  -0.14494   0.00000   0.00000   0.00000
  16        4S          8.08423  -6.78413   0.00000   0.00000   0.00000
  17        4PX         0.00000   0.00000   0.00000   0.00000   0.85242
  18        4PY         0.00000   0.00000   0.00000   0.00000   0.00000
  19        4PZ         5.93149  -5.62997   0.00000   0.00000   0.00000
  20        5S          2.44546   1.14121   0.00000   0.00000   0.00000
  21        5PX         0.00000   0.00000   0.00000   0.00000  -0.22074
  22        5PY         0.00000   0.00000   0.00000   0.00000   0.00000
  23        5PZ         1.99502  -0.03786   0.00000   0.00000   0.00000
  24        6D 0        0.04661  -0.03618   0.00000   0.00000   0.00000
  25        6D+1        0.00000   0.00000   0.00000   0.00000  -0.02259
  26        6D-1        0.00000   0.00000   0.00000   0.00000   0.00000
  27        6D+2        0.00000   0.00000   0.00251   0.00000   0.00000
  28        6D-2        0.00000   0.00000   0.00000   0.00251   0.00000
  29        7D 0        1.40248  -1.81798   0.00000   0.00000   0.00000
  30        7D+1        0.00000   0.00000   0.00000   0.00000   0.65469
  31        7D-1        0.00000   0.00000   0.00000   0.00000   0.00000
  32        7D+2        0.00000   0.00000  -0.58404   0.00000   0.00000
  33        7D-2        0.00000   0.00000   0.00000  -0.58404   0.00000
  34 3   N  1S         -0.00649   0.07371   0.00000   0.00000   0.00000
  35        2S         -0.01133   0.14730   0.00000   0.00000   0.00000
  36        2PX         0.00000   0.00000   0.00000   0.00000   0.02965
  37        2PY         0.00000   0.00000   0.00000   0.00000   0.00000
  38        2PZ        -0.28403  -0.07097   0.00000   0.00000   0.00000
  39        3S          0.10866  -1.12384   0.00000   0.00000   0.00000
  40        3PX         0.00000   0.00000   0.00000   0.00000   0.03375
  41        3PY         0.00000   0.00000   0.00000   0.00000   0.00000
  42        3PZ        -0.49656  -0.61990   0.00000   0.00000   0.00000
  43        4S         -7.35583   9.69987   0.00000   0.00000   0.00000
  44        4PX         0.00000   0.00000   0.00000   0.00000  -1.20260
  45        4PY         0.00000   0.00000   0.00000   0.00000   0.00000
  46        4PZ         4.68503  -2.41710   0.00000   0.00000   0.00000
  47        5S         -6.80901  -0.06252   0.00000   0.00000   0.00000
  48        5PX         0.00000   0.00000   0.00000   0.00000   0.19259
  49        5PY         0.00000   0.00000   0.00000   0.00000   0.00000
  50        5PZ         0.60629  -0.30150   0.00000   0.00000   0.00000
  51        6D 0        0.01070  -0.01535   0.00000   0.00000   0.00000
  52        6D+1        0.00000   0.00000   0.00000   0.00000   0.01062
  53        6D-1        0.00000   0.00000   0.00000   0.00000   0.00000
  54        6D+2        0.00000   0.00000   0.00548   0.00000   0.00000
  55        6D-2        0.00000   0.00000   0.00000   0.00548   0.00000
  56        7D 0       -0.40162  -0.34265   0.00000   0.00000   0.00000
  57        7D+1        0.00000   0.00000   0.00000   0.00000   1.32457
  58        7D-1        0.00000   0.00000   0.00000   0.00000   0.00000
  59        7D+2        0.00000   0.00000   1.06473   0.00000   0.00000
  60        7D-2        0.00000   0.00000   0.00000   1.06473   0.00000
                          36        37        38        39        40
                           V         V         V         V         V
     Eigenvalues --     1.48001   1.64573   2.00833   2.07931   2.07931
   1 1   H  1S          0.00000  -0.32370   0.05184   0.00000   0.00000
   2        2S          0.00000   3.69540  -0.31932   0.00000   0.00000
   3        3S          0.00000  -1.10199  -1.75006   0.00000   0.00000
   4        4PX         0.00000   0.00000   0.00000   1.31024   0.00000
   5        4PY        -0.48877   0.00000   0.00000   0.00000   1.31024
   6        4PZ         0.00000   0.15262   0.16582   0.00000   0.00000
   7 2   C  1S          0.00000   0.04526   0.07763   0.00000   0.00000
   8        2S          0.00000   0.08663   0.21418   0.00000   0.00000
   9        2PX         0.00000   0.00000   0.00000   0.12797   0.00000
  10        2PY         0.14903   0.00000   0.00000   0.00000   0.12797
  11        2PZ         0.00000  -0.30148  -0.07530   0.00000   0.00000
  12        3S          0.00000   0.16657  -3.31505   0.00000   0.00000
  13        3PX         0.00000   0.00000   0.00000   0.26959   0.00000
  14        3PY         0.60743   0.00000   0.00000   0.00000   0.26959
  15        3PZ         0.00000   0.09617  -2.36933   0.00000   0.00000
  16        4S          0.00000  -3.65934  -9.66615   0.00000   0.00000
  17        4PX         0.00000   0.00000   0.00000   0.85036   0.00000
  18        4PY         0.85242   0.00000   0.00000   0.00000   0.85036
  19        4PZ         0.00000   0.12997  -6.25023   0.00000   0.00000
  20        5S          0.00000  -0.42191  -1.69651   0.00000   0.00000
  21        5PX         0.00000   0.00000   0.00000  -0.27584   0.00000
  22        5PY        -0.22074   0.00000   0.00000   0.00000  -0.27584
  23        5PZ         0.00000  -0.55062  -0.95194   0.00000   0.00000
  24        6D 0        0.00000   0.04862  -0.02236   0.00000   0.00000
  25        6D+1        0.00000   0.00000   0.00000  -0.06532   0.00000
  26        6D-1       -0.02259   0.00000   0.00000   0.00000  -0.06532
  27        6D+2        0.00000   0.00000   0.00000   0.00000   0.00000
  28        6D-2        0.00000   0.00000   0.00000   0.00000   0.00000
  29        7D 0        0.00000  -2.75127  -0.97179   0.00000   0.00000
  30        7D+1        0.00000   0.00000   0.00000   2.07831   0.00000
  31        7D-1        0.65469   0.00000   0.00000   0.00000   2.07831
  32        7D+2        0.00000   0.00000   0.00000   0.00000   0.00000
  33        7D-2        0.00000   0.00000   0.00000   0.00000   0.00000
  34 3   N  1S          0.00000  -0.09854   0.01617   0.00000   0.00000
  35        2S          0.00000  -0.21561   0.04360   0.00000   0.00000
  36        2PX         0.00000   0.00000   0.00000  -0.09535   0.00000
  37        2PY         0.02965   0.00000   0.00000   0.00000  -0.09535
  38        2PZ         0.00000  -0.16431  -0.17264   0.00000   0.00000
  39        3S          0.00000   2.33897  -1.07210   0.00000   0.00000
  40        3PX         0.00000   0.00000   0.00000  -0.20015   0.00000
  41        3PY         0.03375   0.00000   0.00000   0.00000  -0.20015
  42        3PZ         0.00000  -0.78846  -0.64110   0.00000   0.00000
  43        4S          0.00000   0.20319  12.02728   0.00000   0.00000
  44        4PX         0.00000   0.00000   0.00000  -1.72423   0.00000
  45        4PY        -1.20260   0.00000   0.00000   0.00000  -1.72423
  46        4PZ         0.00000   0.29411  -6.41009   0.00000   0.00000
  47        5S          0.00000   1.74446   4.57757   0.00000   0.00000
  48        5PX         0.00000   0.00000   0.00000   0.39053   0.00000
  49        5PY         0.19259   0.00000   0.00000   0.00000   0.39053
  50        5PZ         0.00000  -0.55534  -0.57335   0.00000   0.00000
  51        6D 0        0.00000  -0.01305  -0.00933   0.00000   0.00000
  52        6D+1        0.00000   0.00000   0.00000   0.01421   0.00000
  53        6D-1        0.01062   0.00000   0.00000   0.00000   0.01421
  54        6D+2        0.00000   0.00000   0.00000   0.00000   0.00000
  55        6D-2        0.00000   0.00000   0.00000   0.00000   0.00000
  56        7D 0        0.00000  -0.13399   2.29884   0.00000   0.00000
  57        7D+1        0.00000   0.00000   0.00000   1.20119   0.00000
  58        7D-1        1.32457   0.00000   0.00000   0.00000   1.20119
  59        7D+2        0.00000   0.00000   0.00000   0.00000   0.00000
  60        7D-2        0.00000   0.00000   0.00000   0.00000   0.00000
                          41        42        43        44        45
                           V         V         V         V         V
     Eigenvalues --     2.57328   2.65021   2.76486   2.76486   3.19446
   1 1   H  1S         -0.24846   1.63117   0.00000   0.00000   0.00000
   2        2S         -4.17066  -2.56387   0.00000   0.00000   0.00000
   3        3S          0.11709  -0.07723   0.00000   0.00000   0.00000
   4        4PX         0.00000   0.00000   0.00000   0.05301  -0.00357
   5        4PY         0.00000   0.00000   0.05301   0.00000   0.00000
   6        4PZ        -1.83163  -0.59581   0.00000   0.00000   0.00000
   7 2   C  1S         -0.06143   0.01238   0.00000   0.00000   0.00000
   8        2S         -0.12734  -0.00671   0.00000   0.00000   0.00000
   9        2PX         0.00000   0.00000   0.00000  -1.31529  -0.16582
  10        2PY         0.00000   0.00000  -1.31529   0.00000   0.00000
  11        2PZ        -0.55905   0.07771   0.00000   0.00000   0.00000
  12        3S         -0.13876   0.44726   0.00000   0.00000   0.00000
  13        3PX         0.00000   0.00000   0.00000   1.78577   0.33242
  14        3PY         0.00000   0.00000   1.78577   0.00000   0.00000
  15        3PZ        -1.18991  -1.29735   0.00000   0.00000   0.00000
  16        4S          5.51821  -6.59401   0.00000   0.00000   0.00000
  17        4PX         0.00000   0.00000   0.00000  -0.55923  -0.10027
  18        4PY         0.00000   0.00000  -0.55923   0.00000   0.00000
  19        4PZ         0.34694  -4.97141   0.00000   0.00000   0.00000
  20        5S          0.00098  -1.62303   0.00000   0.00000   0.00000
  21        5PX         0.00000   0.00000   0.00000   0.14312  -0.06004
  22        5PY         0.00000   0.00000   0.14312   0.00000   0.00000
  23        5PZ        -0.03742  -0.20059   0.00000   0.00000   0.00000
  24        6D 0       -0.16744   0.12979   0.00000   0.00000   0.00000
  25        6D+1        0.00000   0.00000   0.00000  -0.14266   1.07071
  26        6D-1        0.00000   0.00000  -0.14266   0.00000   0.00000
  27        6D+2        0.00000   0.00000   0.00000   0.00000   0.00000
  28        6D-2        0.00000   0.00000   0.00000   0.00000   0.00000
  29        7D 0        3.06483  -1.47648   0.00000   0.00000   0.00000
  30        7D+1        0.00000   0.00000   0.00000   0.51104  -0.45462
  31        7D-1        0.00000   0.00000   0.51104   0.00000   0.00000
  32        7D+2        0.00000   0.00000   0.00000   0.00000   0.00000
  33        7D-2        0.00000   0.00000   0.00000   0.00000   0.00000
  34 3   N  1S          0.02166  -0.00809   0.00000   0.00000   0.00000
  35        2S          0.06305  -0.02155   0.00000   0.00000   0.00000
  36        2PX         0.00000   0.00000   0.00000  -0.04948  -0.34319
  37        2PY         0.00000   0.00000  -0.04948   0.00000   0.00000
  38        2PZ        -0.12210  -0.07821   0.00000   0.00000   0.00000
  39        3S         -1.35779   0.26914   0.00000   0.00000   0.00000
  40        3PX         0.00000   0.00000   0.00000  -0.09022   0.31408
  41        3PY         0.00000   0.00000  -0.09022   0.00000   0.00000
  42        3PZ         0.39340  -0.44802   0.00000   0.00000   0.00000
  43        4S         -1.85429   6.74453   0.00000   0.00000   0.00000
  44        4PX         0.00000   0.00000   0.00000  -0.49189  -0.11307
  45        4PY         0.00000   0.00000  -0.49189   0.00000   0.00000
  46        4PZ        -0.06416  -2.53587   0.00000   0.00000   0.00000
  47        5S         -0.77126   3.18708   0.00000   0.00000   0.00000
  48        5PX         0.00000   0.00000   0.00000   0.16547   0.11734
  49        5PY         0.00000   0.00000   0.16547   0.00000   0.00000
  50        5PZ         0.60692  -0.80174   0.00000   0.00000   0.00000
  51        6D 0       -0.06109  -0.01639   0.00000   0.00000   0.00000
  52        6D+1        0.00000   0.00000   0.00000   0.03358  -0.17321
  53        6D-1        0.00000   0.00000   0.03358   0.00000   0.00000
  54        6D+2        0.00000   0.00000   0.00000   0.00000   0.00000
  55        6D-2        0.00000   0.00000   0.00000   0.00000   0.00000
  56        7D 0        0.72083   0.15155   0.00000   0.00000   0.00000
  57        7D+1        0.00000   0.00000   0.00000   0.44333   0.36857
  58        7D-1        0.00000   0.00000   0.44333   0.00000   0.00000
  59        7D+2        0.00000   0.00000   0.00000   0.00000   0.00000
  60        7D-2        0.00000   0.00000   0.00000   0.00000   0.00000
                          46        47        48        49        50
                           V         V         V         V         V
     Eigenvalues --     3.19446   3.22025   3.22025   3.34219   3.74904
   1 1   H  1S          0.00000   0.00000   0.00000   0.38591  -0.10814
   2        2S          0.00000   0.00000   0.00000   2.59193  -0.24938
   3        3S          0.00000   0.00000   0.00000  -0.80627  -0.58987
   4        4PX         0.00000   0.00000   0.00000   0.00000   0.00000
   5        4PY        -0.00357   0.00000   0.00000   0.00000   0.00000
   6        4PZ         0.00000   0.00000   0.00000   1.35713  -0.64558
   7 2   C  1S          0.00000   0.00000   0.00000   0.00205  -0.03624
   8        2S          0.00000   0.00000   0.00000   0.01048  -0.07479
   9        2PX         0.00000   0.00000   0.00000   0.00000   0.00000
  10        2PY        -0.16582   0.00000   0.00000   0.00000   0.00000
  11        2PZ         0.00000   0.00000   0.00000  -1.31268  -0.12157
  12        3S          0.00000   0.00000   0.00000   0.53213   1.16251
  13        3PX         0.00000   0.00000   0.00000   0.00000   0.00000
  14        3PY         0.33242   0.00000   0.00000   0.00000   0.00000
  15        3PZ         0.00000   0.00000   0.00000   4.18905   0.25989
  16        4S          0.00000   0.00000   0.00000   0.94214   0.00373
  17        4PX         0.00000   0.00000   0.00000   0.00000   0.00000
  18        4PY        -0.10027   0.00000   0.00000   0.00000   0.00000
  19        4PZ         0.00000   0.00000   0.00000   0.49676  -0.85623
  20        5S          0.00000   0.00000   0.00000  -0.07604   0.22963
  21        5PX         0.00000   0.00000   0.00000   0.00000   0.00000
  22        5PY        -0.06004   0.00000   0.00000   0.00000   0.00000
  23        5PZ         0.00000   0.00000   0.00000  -0.15254  -0.07146
  24        6D 0        0.00000   0.00000   0.00000   0.02634   1.16571
  25        6D+1        0.00000   0.00000   0.00000   0.00000   0.00000
  26        6D-1        1.07071   0.00000   0.00000   0.00000   0.00000
  27        6D+2        0.00000   0.00000   1.12528   0.00000   0.00000
  28        6D-2        0.00000   1.12528   0.00000   0.00000   0.00000
  29        7D 0        0.00000   0.00000   0.00000  -0.78599  -0.54584
  30        7D+1        0.00000   0.00000   0.00000   0.00000   0.00000
  31        7D-1       -0.45462   0.00000   0.00000   0.00000   0.00000
  32        7D+2        0.00000   0.00000  -0.53832   0.00000   0.00000
  33        7D-2        0.00000  -0.53832   0.00000   0.00000   0.00000
  34 3   N  1S          0.00000   0.00000   0.00000   0.00831   0.03259
  35        2S          0.00000   0.00000   0.00000   0.02922   0.06280
  36        2PX         0.00000   0.00000   0.00000   0.00000   0.00000
  37        2PY        -0.34319   0.00000   0.00000   0.00000   0.00000
  38        2PZ         0.00000   0.00000   0.00000   0.25959   0.11061
  39        3S          0.00000   0.00000   0.00000   0.03586  -0.17426
  40        3PX         0.00000   0.00000   0.00000   0.00000   0.00000
  41        3PY         0.31408   0.00000   0.00000   0.00000   0.00000
  42        3PZ         0.00000   0.00000   0.00000   0.51132   0.41170
  43        4S          0.00000   0.00000   0.00000  -2.77378   0.43483
  44        4PX         0.00000   0.00000   0.00000   0.00000   0.00000
  45        4PY        -0.11307   0.00000   0.00000   0.00000   0.00000
  46        4PZ         0.00000   0.00000   0.00000   1.89077   0.23162
  47        5S          0.00000   0.00000   0.00000   0.35633  -0.18444
  48        5PX         0.00000   0.00000   0.00000   0.00000   0.00000
  49        5PY         0.11734   0.00000   0.00000   0.00000   0.00000
  50        5PZ         0.00000   0.00000   0.00000  -0.33086   0.10497
  51        6D 0        0.00000   0.00000   0.00000  -0.12225   0.39280
  52        6D+1        0.00000   0.00000   0.00000   0.00000   0.00000
  53        6D-1       -0.17321   0.00000   0.00000   0.00000   0.00000
  54        6D+2        0.00000   0.00000   0.04062   0.00000   0.00000
  55        6D-2        0.00000   0.04062   0.00000   0.00000   0.00000
  56        7D 0        0.00000   0.00000   0.00000  -0.64896  -0.73517
  57        7D+1        0.00000   0.00000   0.00000   0.00000   0.00000
  58        7D-1        0.36857   0.00000   0.00000   0.00000   0.00000
  59        7D+2        0.00000   0.00000   0.03625   0.00000   0.00000
  60        7D-2        0.00000   0.03625   0.00000   0.00000   0.00000
                          51        52        53        54        55
                           V         V         V         V         V
     Eigenvalues --     3.96985   3.96985   4.58101   4.78063   4.78063
   1 1   H  1S          0.00000   0.00000  -0.00252   0.00000   0.00000
   2        2S          0.00000   0.00000  -1.36423   0.00000   0.00000
   3        3S          0.00000   0.00000  -0.20355   0.00000   0.00000
   4        4PX        -0.19465   0.00000   0.00000   0.00000   0.00000
   5        4PY         0.00000  -0.19465   0.00000   0.00000   0.00000
   6        4PZ         0.00000   0.00000  -0.68435   0.00000   0.00000
   7 2   C  1S          0.00000   0.00000   0.03745   0.00000   0.00000
   8        2S          0.00000   0.00000   0.10069   0.00000   0.00000
   9        2PX         0.10374   0.00000   0.00000   0.00000   0.00000
  10        2PY         0.00000   0.10374   0.00000   0.00000   0.00000
  11        2PZ         0.00000   0.00000   0.24003   0.00000   0.00000
  12        3S          0.00000   0.00000  -1.85286   0.00000   0.00000
  13        3PX        -0.34437   0.00000   0.00000   0.00000   0.00000
  14        3PY         0.00000  -0.34437   0.00000   0.00000   0.00000
  15        3PZ         0.00000   0.00000  -3.28615   0.00000   0.00000
  16        4S          0.00000   0.00000  -4.50153   0.00000   0.00000
  17        4PX         0.13004   0.00000   0.00000   0.00000   0.00000
  18        4PY         0.00000   0.13004   0.00000   0.00000   0.00000
  19        4PZ         0.00000   0.00000  -2.80300   0.00000   0.00000
  20        5S          0.00000   0.00000  -0.31286   0.00000   0.00000
  21        5PX        -0.22243   0.00000   0.00000   0.00000   0.00000
  22        5PY         0.00000  -0.22243   0.00000   0.00000   0.00000
  23        5PZ         0.00000   0.00000   0.01526   0.00000   0.00000
  24        6D 0        0.00000   0.00000  -0.12018   0.00000   0.00000
  25        6D+1       -0.34633   0.00000   0.00000   0.00000   0.00000
  26        6D-1        0.00000  -0.34633   0.00000   0.00000   0.00000
  27        6D+2        0.00000   0.00000   0.00000  -0.05730   0.00000
  28        6D-2        0.00000   0.00000   0.00000   0.00000  -0.05730
  29        7D 0        0.00000   0.00000  -0.43541   0.00000   0.00000
  30        7D+1       -0.27129   0.00000   0.00000   0.00000   0.00000
  31        7D-1        0.00000  -0.27129   0.00000   0.00000   0.00000
  32        7D+2        0.00000   0.00000   0.00000   0.14582   0.00000
  33        7D-2        0.00000   0.00000   0.00000   0.00000   0.14582
  34 3   N  1S          0.00000   0.00000  -0.02379   0.00000   0.00000
  35        2S          0.00000   0.00000  -0.04221   0.00000   0.00000
  36        2PX        -1.26398   0.00000   0.00000   0.00000   0.00000
  37        2PY         0.00000  -1.26398   0.00000   0.00000   0.00000
  38        2PZ         0.00000   0.00000   1.33201   0.00000   0.00000
  39        3S          0.00000   0.00000  -0.03655   0.00000   0.00000
  40        3PX         1.65222   0.00000   0.00000   0.00000   0.00000
  41        3PY         0.00000   1.65222   0.00000   0.00000   0.00000
  42        3PZ         0.00000   0.00000  -2.74291   0.00000   0.00000
  43        4S          0.00000   0.00000   6.59479   0.00000   0.00000
  44        4PX        -0.69951   0.00000   0.00000   0.00000   0.00000
  45        4PY         0.00000  -0.69951   0.00000   0.00000   0.00000
  46        4PZ         0.00000   0.00000  -2.41187   0.00000   0.00000
  47        5S          0.00000   0.00000   0.97282   0.00000   0.00000
  48        5PX         0.41214   0.00000   0.00000   0.00000   0.00000
  49        5PY         0.00000   0.41214   0.00000   0.00000   0.00000
  50        5PZ         0.00000   0.00000  -0.40705   0.00000   0.00000
  51        6D 0        0.00000   0.00000  -0.23979   0.00000   0.00000
  52        6D+1        0.05709   0.00000   0.00000   0.00000   0.00000
  53        6D-1        0.00000   0.05709   0.00000   0.00000   0.00000
  54        6D+2        0.00000   0.00000   0.00000   1.13168   0.00000
  55        6D-2        0.00000   0.00000   0.00000   0.00000   1.13168
  56        7D 0        0.00000   0.00000   1.44617   0.00000   0.00000
  57        7D+1       -0.33172   0.00000   0.00000   0.00000   0.00000
  58        7D-1        0.00000  -0.33172   0.00000   0.00000   0.00000
  59        7D+2        0.00000   0.00000   0.00000  -0.57650   0.00000
  60        7D-2        0.00000   0.00000   0.00000   0.00000  -0.57650
                          56        57        58        59        60
                           V         V         V         V         V
     Eigenvalues --     5.05897   5.05897   5.62960  24.18810  35.72755
   1 1   H  1S          0.00000   0.00000  -0.13375   0.04312  -0.01009
   2        2S          0.00000   0.00000  -0.29849   0.49571  -0.34051
   3        3S          0.00000   0.00000  -0.54395  -0.49461  -0.09546
   4        4PX        -0.14553   0.00000   0.00000   0.00000   0.00000
   5        4PY         0.00000  -0.14553   0.00000   0.00000   0.00000
   6        4PZ         0.00000   0.00000  -0.29109   0.20556  -0.06551
   7 2   C  1S          0.00000   0.00000  -0.07001  -2.04179   0.08710
   8        2S          0.00000   0.00000  -0.07824   2.26512  -0.12581
   9        2PX         0.02684   0.00000   0.00000   0.00000   0.00000
  10        2PY         0.00000   0.02684   0.00000   0.00000   0.00000
  11        2PZ         0.00000   0.00000   0.09684   0.03124  -0.01813
  12        3S          0.00000   0.00000   0.27802  -1.01379   0.08562
  13        3PX        -0.30046   0.00000   0.00000   0.00000   0.00000
  14        3PY         0.00000  -0.30046   0.00000   0.00000   0.00000
  15        3PZ         0.00000   0.00000   0.22650  -0.42346   0.15121
  16        4S          0.00000   0.00000  -0.94440  -1.85693   0.32185
  17        4PX        -0.50723   0.00000   0.00000   0.00000   0.00000
  18        4PY         0.00000  -0.50723   0.00000   0.00000   0.00000
  19        4PZ         0.00000   0.00000  -1.03493  -1.08127  -0.24841
  20        5S          0.00000   0.00000  -0.77709  -0.06429   0.12608
  21        5PX         0.13236   0.00000   0.00000   0.00000   0.00000
  22        5PY         0.00000   0.13236   0.00000   0.00000   0.00000
  23        5PZ         0.00000   0.00000  -0.44173  -0.15454   0.03032
  24        6D 0        0.00000   0.00000   0.82057  -0.13651   0.08891
  25        6D+1        0.24878   0.00000   0.00000   0.00000   0.00000
  26        6D-1        0.00000   0.24878   0.00000   0.00000   0.00000
  27        6D+2        0.00000   0.00000   0.00000   0.00000   0.00000
  28        6D-2        0.00000   0.00000   0.00000   0.00000   0.00000
  29        7D 0        0.00000   0.00000   0.08229  -0.55924   0.27313
  30        7D+1       -0.71047   0.00000   0.00000   0.00000   0.00000
  31        7D-1        0.00000  -0.71047   0.00000   0.00000   0.00000
  32        7D+2        0.00000   0.00000   0.00000   0.00000   0.00000
  33        7D-2        0.00000   0.00000   0.00000   0.00000   0.00000
  34 3   N  1S          0.00000   0.00000   0.04429  -0.07786  -2.14837
  35        2S          0.00000   0.00000   0.06755   0.04735   2.29137
  36        2PX         0.00149   0.00000   0.00000   0.00000   0.00000
  37        2PY         0.00000   0.00149   0.00000   0.00000   0.00000
  38        2PZ         0.00000   0.00000  -0.31980   0.09081  -0.04618
  39        3S          0.00000   0.00000  -0.59093   0.12215  -0.58381
  40        3PX         0.04666   0.00000   0.00000   0.00000   0.00000
  41        3PY         0.00000   0.04666   0.00000   0.00000   0.00000
  42        3PZ         0.00000   0.00000   1.02343  -0.47740   0.24047
  43        4S          0.00000   0.00000   0.96440   2.30271   0.32093
  44        4PX         0.76320   0.00000   0.00000   0.00000   0.00000
  45        4PY         0.00000   0.76320   0.00000   0.00000   0.00000
  46        4PZ         0.00000   0.00000  -1.09455  -0.96682  -0.10992
  47        5S          0.00000   0.00000   1.62627   0.51482  -0.22445
  48        5PX        -0.11621   0.00000   0.00000   0.00000   0.00000
  49        5PY         0.00000  -0.11621   0.00000   0.00000   0.00000
  50        5PZ         0.00000   0.00000  -0.10991  -0.06685   0.07767
  51        6D 0        0.00000   0.00000  -1.12646   0.06659  -0.04344
  52        6D+1        1.16294   0.00000   0.00000   0.00000   0.00000
  53        6D-1        0.00000   1.16294   0.00000   0.00000   0.00000
  54        6D+2        0.00000   0.00000   0.00000   0.00000   0.00000
  55        6D-2        0.00000   0.00000   0.00000   0.00000   0.00000
  56        7D 0        0.00000   0.00000   0.48506   0.28464  -0.00992
  57        7D+1       -0.98581   0.00000   0.00000   0.00000   0.00000
  58        7D-1        0.00000  -0.98581   0.00000   0.00000   0.00000
  59        7D+2        0.00000   0.00000   0.00000   0.00000   0.00000
  60        7D-2        0.00000   0.00000   0.00000   0.00000   0.00000
     Density Matrix:
                           1         2         3         4         5
   1 1   H  1S          0.07499
   2        2S          0.10976   0.16204
   3        3S          0.00800   0.01249   0.00243
   4        4PX         0.00000   0.00000   0.00000   0.00050
   5        4PY         0.00000   0.00000   0.00000   0.00000   0.00050
   6        4PZ         0.01352   0.01998   0.00139   0.00000   0.00000
   7 2   C  1S         -0.02614  -0.04116   0.01077   0.00000   0.00000
   8        2S         -0.04088  -0.05886   0.00996   0.00000   0.00000
   9        2PX         0.00000   0.00000   0.00000   0.00594   0.00000
  10        2PY         0.00000   0.00000   0.00000   0.00000   0.00594
  11        2PZ        -0.06824  -0.10708  -0.01333   0.00000   0.00000
  12        3S          0.10533   0.13527  -0.00675   0.00000   0.00000
  13        3PX         0.00000   0.00000   0.00000   0.00901   0.00000
  14        3PY         0.00000   0.00000   0.00000   0.00000   0.00901
  15        3PZ        -0.08934  -0.13898  -0.01685   0.00000   0.00000
  16        4S          0.08381   0.11360  -0.00323   0.00000   0.00000
  17        4PX         0.00000   0.00000   0.00000   0.00623   0.00000
  18        4PY         0.00000   0.00000   0.00000   0.00000   0.00623
  19        4PZ        -0.04117  -0.06219  -0.00749   0.00000   0.00000
  20        5S          0.00316   0.00313  -0.00063   0.00000   0.00000
  21        5PX         0.00000   0.00000   0.00000   0.00079   0.00000
  22        5PY         0.00000   0.00000   0.00000   0.00000   0.00079
  23        5PZ        -0.00589  -0.00904  -0.00060   0.00000   0.00000
  24        6D 0        0.00230   0.00228  -0.00050   0.00000   0.00000
  25        6D+1        0.00000   0.00000   0.00000   0.00055   0.00000
  26        6D-1        0.00000   0.00000   0.00000   0.00000   0.00055
  27        6D+2        0.00000   0.00000   0.00000   0.00000   0.00000
  28        6D-2        0.00000   0.00000   0.00000   0.00000   0.00000
  29        7D 0        0.00121   0.00093   0.00014   0.00000   0.00000
  30        7D+1        0.00000   0.00000   0.00000   0.00035   0.00000
  31        7D-1        0.00000   0.00000   0.00000   0.00000   0.00035
  32        7D+2        0.00000   0.00000   0.00000   0.00000   0.00000
  33        7D-2        0.00000   0.00000   0.00000   0.00000   0.00000
  34 3   N  1S          0.00411   0.01509   0.00067   0.00000   0.00000
  35        2S          0.00669   0.01986  -0.00058   0.00000   0.00000
  36        2PX         0.00000   0.00000   0.00000   0.00653   0.00000
  37        2PY         0.00000   0.00000   0.00000   0.00000   0.00653
  38        2PZ         0.02352   0.04351   0.01575   0.00000   0.00000
  39        3S         -0.02007  -0.04347   0.00695   0.00000   0.00000
  40        3PX         0.00000   0.00000   0.00000   0.00999   0.00000
  41        3PY         0.00000   0.00000   0.00000   0.00000   0.00999
  42        3PZ         0.03107   0.05756   0.02168   0.00000   0.00000
  43        4S          0.00706   0.00782   0.02075   0.00000   0.00000
  44        4PX         0.00000   0.00000   0.00000   0.00754   0.00000
  45        4PY         0.00000   0.00000   0.00000   0.00000   0.00754
  46        4PZ         0.01562   0.02833   0.01213   0.00000   0.00000
  47        5S          0.00766   0.01533   0.00632   0.00000   0.00000
  48        5PX         0.00000   0.00000   0.00000   0.00011   0.00000
  49        5PY         0.00000   0.00000   0.00000   0.00000   0.00011
  50        5PZ         0.00572   0.00804   0.00087   0.00000   0.00000
  51        6D 0       -0.00240  -0.00439  -0.00118   0.00000   0.00000
  52        6D+1        0.00000   0.00000   0.00000  -0.00046   0.00000
  53        6D-1        0.00000   0.00000   0.00000   0.00000  -0.00046
  54        6D+2        0.00000   0.00000   0.00000   0.00000   0.00000
  55        6D-2        0.00000   0.00000   0.00000   0.00000   0.00000
  56        7D 0        0.00010  -0.00045  -0.00074   0.00000   0.00000
  57        7D+1        0.00000   0.00000   0.00000  -0.00117   0.00000
  58        7D-1        0.00000   0.00000   0.00000   0.00000  -0.00117
  59        7D+2        0.00000   0.00000   0.00000   0.00000   0.00000
  60        7D-2        0.00000   0.00000   0.00000   0.00000   0.00000
                           6         7         8         9        10
   6        4PZ         0.00249
   7 2   C  1S         -0.00723   0.66041
   8        2S         -0.00915   0.56310   0.49448
   9        2PX         0.00000   0.00000   0.00000   0.07046
  10        2PY         0.00000   0.00000   0.00000   0.00000   0.07046
  11        2PZ        -0.01303  -0.00510  -0.00708   0.00000   0.00000
  12        3S          0.01740  -0.08577  -0.15358   0.00000   0.00000
  13        3PX         0.00000   0.00000   0.00000   0.10687   0.00000
  14        3PY         0.00000   0.00000   0.00000   0.00000   0.10687
  15        3PZ        -0.01687   0.00573   0.00406   0.00000   0.00000
  16        4S          0.01485  -0.04102  -0.08564   0.00000   0.00000
  17        4PX         0.00000   0.00000   0.00000   0.07393   0.00000
  18        4PY         0.00000   0.00000   0.00000   0.00000   0.07393
  19        4PZ        -0.00741   0.02314   0.02271   0.00000   0.00000
  20        5S          0.00038  -0.00575  -0.00946   0.00000   0.00000
  21        5PX         0.00000   0.00000   0.00000   0.00941   0.00000
  22        5PY         0.00000   0.00000   0.00000   0.00000   0.00941
  23        5PZ        -0.00116   0.00395   0.00401   0.00000   0.00000
  24        6D 0        0.00028  -0.00226  -0.00535   0.00000   0.00000
  25        6D+1        0.00000   0.00000   0.00000   0.00648   0.00000
  26        6D-1        0.00000   0.00000   0.00000   0.00000   0.00648
  27        6D+2        0.00000   0.00000   0.00000   0.00000   0.00000
  28        6D-2        0.00000   0.00000   0.00000   0.00000   0.00000
  29        7D 0        0.00003   0.00643   0.00347   0.00000   0.00000
  30        7D+1        0.00000   0.00000   0.00000   0.00416   0.00000
  31        7D-1        0.00000   0.00000   0.00000   0.00000   0.00416
  32        7D+2        0.00000   0.00000   0.00000   0.00000   0.00000
  33        7D-2        0.00000   0.00000   0.00000   0.00000   0.00000
  34 3   N  1S          0.00265   0.00596   0.00927   0.00000   0.00000
  35        2S          0.00356   0.00970   0.01425   0.00000   0.00000
  36        2PX         0.00000   0.00000   0.00000   0.07741   0.00000
  37        2PY         0.00000   0.00000   0.00000   0.00000   0.07741
  38        2PZ         0.00436   0.03198   0.05185   0.00000   0.00000
  39        3S         -0.00798  -0.02531  -0.03493   0.00000   0.00000
  40        3PX         0.00000   0.00000   0.00000   0.11854   0.00000
  41        3PY         0.00000   0.00000   0.00000   0.00000   0.11854
  42        3PZ         0.00566   0.05134   0.07706   0.00000   0.00000
  43        4S         -0.00209  -0.02441  -0.00666   0.00000   0.00000
  44        4PX         0.00000   0.00000   0.00000   0.08947   0.00000
  45        4PY         0.00000   0.00000   0.00000   0.00000   0.08947
  46        4PZ         0.00254   0.03891   0.04956   0.00000   0.00000
  47        5S          0.00151   0.00733   0.01770   0.00000   0.00000
  48        5PX         0.00000   0.00000   0.00000   0.00126   0.00000
  49        5PY         0.00000   0.00000   0.00000   0.00000   0.00126
  50        5PZ         0.00092  -0.00241  -0.00384   0.00000   0.00000
  51        6D 0       -0.00049  -0.00309  -0.00462   0.00000   0.00000
  52        6D+1        0.00000   0.00000   0.00000  -0.00540   0.00000
  53        6D-1        0.00000   0.00000   0.00000   0.00000  -0.00540
  54        6D+2        0.00000   0.00000   0.00000   0.00000   0.00000
  55        6D-2        0.00000   0.00000   0.00000   0.00000   0.00000
  56        7D 0       -0.00001  -0.00710  -0.00784   0.00000   0.00000
  57        7D+1        0.00000   0.00000   0.00000  -0.01387   0.00000
  58        7D-1        0.00000   0.00000   0.00000   0.00000  -0.01387
  59        7D+2        0.00000   0.00000   0.00000   0.00000   0.00000
  60        7D-2        0.00000   0.00000   0.00000   0.00000   0.00000
                          11        12        13        14        15
  11        2PZ         0.10517
  12        3S          0.01861   0.46296
  13        3PX         0.00000   0.00000   0.16209
  14        3PY         0.00000   0.00000   0.00000   0.16209
  15        3PZ         0.13056   0.00783   0.00000   0.00000   0.16332
  16        4S         -0.01770   0.29241   0.00000   0.00000  -0.02868
  17        4PX         0.00000   0.00000   0.11213   0.00000   0.00000
  18        4PY         0.00000   0.00000   0.00000   0.11213   0.00000
  19        4PZ         0.05033  -0.01644   0.00000   0.00000   0.06536
  20        5S          0.00555   0.02604   0.00000   0.00000   0.00570
  21        5PX         0.00000   0.00000   0.01427   0.00000   0.00000
  22        5PY         0.00000   0.00000   0.00000   0.01427   0.00000
  23        5PZ         0.00722  -0.00420   0.00000   0.00000   0.00897
  24        6D 0        0.00406   0.01938   0.00000   0.00000   0.00426
  25        6D+1        0.00000   0.00000   0.00983   0.00000   0.00000
  26        6D-1        0.00000   0.00000   0.00000   0.00983   0.00000
  27        6D+2        0.00000   0.00000   0.00000   0.00000   0.00000
  28        6D-2        0.00000   0.00000   0.00000   0.00000   0.00000
  29        7D 0        0.00247   0.00999   0.00000   0.00000   0.00241
  30        7D+1        0.00000   0.00000   0.00630   0.00000   0.00000
  31        7D-1        0.00000   0.00000   0.00000   0.00630   0.00000
  32        7D+2        0.00000   0.00000   0.00000   0.00000   0.00000
  33        7D-2        0.00000   0.00000   0.00000   0.00000   0.00000
  34 3   N  1S         -0.01816  -0.01720   0.00000   0.00000  -0.01913
  35        2S         -0.02867  -0.02583   0.00000   0.00000  -0.02933
  36        2PX         0.00000   0.00000   0.11741   0.00000   0.00000
  37        2PY         0.00000   0.00000   0.00000   0.11741   0.00000
  38        2PZ        -0.08260  -0.14872   0.00000   0.00000  -0.10214
  39        3S          0.07787   0.05999   0.00000   0.00000   0.07689
  40        3PX         0.00000   0.00000   0.17980   0.00000   0.00000
  41        3PY         0.00000   0.00000   0.00000   0.17980   0.00000
  42        3PZ        -0.11087  -0.20284   0.00000   0.00000  -0.13730
  43        4S         -0.01747  -0.09802   0.00000   0.00000  -0.03808
  44        4PX         0.00000   0.00000   0.13570   0.00000   0.00000
  45        4PY         0.00000   0.00000   0.00000   0.13570   0.00000
  46        4PZ        -0.05457  -0.10301   0.00000   0.00000  -0.06855
  47        5S         -0.03351  -0.06780   0.00000   0.00000  -0.04124
  48        5PX         0.00000   0.00000   0.00191   0.00000   0.00000
  49        5PY         0.00000   0.00000   0.00000   0.00191   0.00000
  50        5PZ        -0.00394   0.00966   0.00000   0.00000  -0.00574
  51        6D 0        0.00769   0.01187   0.00000   0.00000   0.00929
  52        6D+1        0.00000   0.00000  -0.00819   0.00000   0.00000
  53        6D-1        0.00000   0.00000   0.00000  -0.00819   0.00000
  54        6D+2        0.00000   0.00000   0.00000   0.00000   0.00000
  55        6D-2        0.00000   0.00000   0.00000   0.00000   0.00000
  56        7D 0        0.00393   0.01111   0.00000   0.00000   0.00453
  57        7D+1        0.00000   0.00000  -0.02104   0.00000   0.00000
  58        7D-1        0.00000   0.00000   0.00000  -0.02104   0.00000
  59        7D+2        0.00000   0.00000   0.00000   0.00000   0.00000
  60        7D-2        0.00000   0.00000   0.00000   0.00000   0.00000
                          16        17        18        19        20
  16        4S          0.20770
  17        4PX         0.00000   0.07757
  18        4PY         0.00000   0.00000   0.07757
  19        4PZ        -0.01580   0.00000   0.00000   0.03133
  20        5S          0.01347   0.00000   0.00000   0.00020   0.00187
  21        5PX         0.00000   0.00987   0.00000   0.00000   0.00000
  22        5PY         0.00000   0.00000   0.00987   0.00000   0.00000
  23        5PZ        -0.00579   0.00000   0.00000   0.00319   0.00021
  24        6D 0        0.01044   0.00000   0.00000   0.00041   0.00134
  25        6D+1        0.00000   0.00680   0.00000   0.00000   0.00000
  26        6D-1        0.00000   0.00000   0.00680   0.00000   0.00000
  27        6D+2        0.00000   0.00000   0.00000   0.00000   0.00000
  28        6D-2        0.00000   0.00000   0.00000   0.00000   0.00000
  29        7D 0        0.00365   0.00000   0.00000  -0.00046   0.00092
  30        7D+1        0.00000   0.00436   0.00000   0.00000   0.00000
  31        7D-1        0.00000   0.00000   0.00436   0.00000   0.00000
  32        7D+2        0.00000   0.00000   0.00000   0.00000   0.00000
  33        7D-2        0.00000   0.00000   0.00000   0.00000   0.00000
  34 3   N  1S          0.01242   0.00000   0.00000   0.01052  -0.00702
  35        2S          0.02205   0.00000   0.00000   0.01192  -0.00886
  36        2PX         0.00000   0.08122   0.00000   0.00000   0.00000
  37        2PY         0.00000   0.00000   0.08122   0.00000   0.00000
  38        2PZ        -0.09247   0.00000   0.00000  -0.04405  -0.00929
  39        3S         -0.07253   0.00000   0.00000  -0.01828   0.01701
  40        3PX         0.00000   0.12439   0.00000   0.00000   0.00000
  41        3PY         0.00000   0.00000   0.12439   0.00000   0.00000
[...]
  50        5PZ         0.00000   0.00127   0.00000   0.00000   0.00000
  51        6D 0        0.00000   0.00000   0.00000   0.00000   0.00000
  52        6D+1        0.00000   0.00000   0.00000   0.00000   0.00000
  53        6D-1        0.00000   0.00000   0.00000   0.00000   0.00000
  54        6D+2        0.00000   0.00000   0.00000   0.00000   0.00000
  55        6D-2        0.00000   0.00000   0.00000   0.00000   0.00000
  56        7D 0        0.00000   0.00000   0.00000   0.00000   0.00000
  57        7D+1        0.00000   0.00000   0.00000   0.00000   0.00000
  58        7D-1        0.00000   0.00000   0.00000   0.00000   0.00000
  59        7D+2        0.00000   0.00000   0.00000   0.00000   0.00000
  60        7D-2        0.00000   0.00000   0.00000   0.00000   0.00000
                          46        47        48        49        50
  46        4PZ         0.07627
  47        5S          0.00000   0.02412
  48        5PX         0.00000   0.00000   0.00001
  49        5PY         0.00000   0.00000   0.00000   0.00001
  50        5PZ         0.00247   0.00000   0.00000   0.00000   0.00082
  51        6D 0        0.00000   0.00000   0.00000   0.00000   0.00000
  52        6D+1        0.00000   0.00000   0.00000   0.00000   0.00000
  53        6D-1        0.00000   0.00000   0.00000   0.00000   0.00000
  54        6D+2        0.00000   0.00000   0.00000   0.00000   0.00000
  55        6D-2        0.00000   0.00000   0.00000   0.00000   0.00000
  56        7D 0        0.00000   0.00000   0.00000   0.00000   0.00000
  57        7D+1        0.00000   0.00000   0.00000   0.00000   0.00000
  58        7D-1        0.00000   0.00000   0.00000   0.00000   0.00000
  59        7D+2        0.00000   0.00000   0.00000   0.00000   0.00000
  60        7D-2        0.00000   0.00000   0.00000   0.00000   0.00000
                          51        52        53        54        55
  51        6D 0        0.00085
  52        6D+1        0.00000   0.00044
  53        6D-1        0.00000   0.00000   0.00044
  54        6D+2        0.00000   0.00000   0.00000   0.00000
  55        6D-2        0.00000   0.00000   0.00000   0.00000   0.00000
  56        7D 0        0.00024   0.00000   0.00000   0.00000   0.00000
  57        7D+1        0.00000   0.00050   0.00000   0.00000   0.00000
  58        7D-1        0.00000   0.00000   0.00050   0.00000   0.00000
  59        7D+2        0.00000   0.00000   0.00000   0.00000   0.00000
  60        7D-2        0.00000   0.00000   0.00000   0.00000   0.00000
                          56        57        58        59        60
  56        7D 0        0.00040
  57        7D+1        0.00000   0.00272
  58        7D-1        0.00000   0.00000   0.00272
  59        7D+2        0.00000   0.00000   0.00000   0.00000
  60        7D-2        0.00000   0.00000   0.00000   0.00000   0.00000
     Gross orbital populations:
                           1
   1 1   H  1S          0.25862
   2        2S          0.49058
   3        3S          0.02206
   4        4PX         0.00549
   5        4PY         0.00549
   6        4PZ         0.02108
   7 2   C  1S          1.10388
   8        2S          0.88426
   9        2PX         0.18241
  10        2PY         0.18241
  11        2PZ         0.28633
  12        3S          0.79218
  13        3PX         0.42932
  14        3PY         0.42932
  15        3PZ         0.50145
  16        4S          0.42742
  17        4PX         0.27957
  18        4PY         0.27957
  19        4PZ         0.09125
  20        5S          0.02783
  21        5PX         0.01900
  22        5PY         0.01900
  23        5PZ         0.01323
  24        6D 0        0.00790
  25        6D+1        0.00476
  26        6D-1        0.00476
  27        6D+2        0.00000
  28        6D-2        0.00000
  29        7D 0        0.01134
  30        7D+1        0.00742
  31        7D-1        0.00742
  32        7D+2        0.00000
  33        7D-2        0.00000
  34 3   N  1S          1.09561
  35        2S          0.89558
  36        2PX         0.20417
  37        2PY         0.20417
  38        2PZ         0.32123
  39        3S          0.95193
  40        3PX         0.47552
  41        3PY         0.47552
  42        3PZ         0.63914
  43        4S          0.86322
  44        4PX         0.36501
  45        4PY         0.36501
  46        4PZ         0.27043
  47        5S          0.02408
  48        5PX         0.00248
  49        5PY         0.00248
  50        5PZ        -0.00903
  51        6D 0        0.00472
  52        6D+1        0.00264
  53        6D-1        0.00264
  54        6D+2        0.00000
  55        6D-2        0.00000
  56        7D 0        0.00369
  57        7D+1        0.02221
  58        7D-1        0.02221
  59        7D+2        0.00000
  60        7D-2        0.00000
          Condensed to atoms (all electrons):
               1          2          3
     1  H    0.423000   0.389307  -0.008996
     2  C    0.389307   4.951433   0.651308
     3  N   -0.008996   0.651308   6.562329
 Mulliken charges:
               1
     1  H    0.196689
     2  C    0.007952
     3  N   -0.204641
 Sum of Mulliken charges =   0.00000
 Mulliken charges with hydrogens summed into heavy atoms:
               1
     2  C    0.204641
     3  N   -0.204641
 APT charges:
               1
     1  H    0.263039
     2  C   -0.062002
     3  N   -0.201037
 Sum of APT charges =   0.00000
 APT charges with hydrogens summed into heavy atoms:
               1
     2  C    0.201037
     3  N   -0.201037
 Electronic spatial extent (au):  <R**2>=             49.2821
 Charge=              0.0000 electrons
 Dipole moment (field-independent basis, Debye):
    X=              0.0000    Y=              0.0000    Z=             -3.0603  Tot=              3.0603
 Quadrupole moment (field-independent basis, Debye-Ang):
   XX=            -11.7745   YY=            -11.7745   ZZ=             -9.6639
   XY=              0.0000   XZ=              0.0000   YZ=              0.0000
 Traceless Quadrupole moment (field-independent basis, Debye-Ang):
   XX=             -0.7035   YY=             -0.7035   ZZ=              1.4070
   XY=              0.0000   XZ=              0.0000   YZ=              0.0000
 Octapole moment (field-independent basis, Debye-Ang**2):
  XXX=              0.0000  YYY=              0.0000  ZZZ=             -7.7311  XYY=              0.0000
  XXY=              0.0000  XXZ=             -0.3343  XZZ=              0.0000  YZZ=              0.0000
  YYZ=             -0.3343  XYZ=              0.0000
 Hexadecapole moment (field-independent basis, Debye-Ang**3):
 XXXX=            -12.0954 YYYY=            -12.0954 ZZZZ=            -35.5119 XXXY=              0.0000
 XXXZ=              0.0000 YYYX=              0.0000 YYYZ=              0.0000 ZZZX=              0.0000
 ZZZY=              0.0000 XXYY=             -4.0318 XXZZ=             -9.1871 YYZZ=             -9.1871
 XXYZ=              0.0000 YYXZ=              0.0000 ZZXY=              0.0000
 N-N= 2.403179217233D+01 E-N=-2.661305162761D+02  KE= 9.304348446692D+01
 Symmetry A1   KE= 8.733979206340D+01
 Symmetry A2   KE=-9.446289123895D-52
 Symmetry B1   KE= 2.851846201760D+00
 Symmetry B2   KE= 2.851846201760D+00
 Orbital energies and kinetic energies (alpha):
                                 1                 2
   1         O               -14.376142         22.063792
   2         O               -10.252947         15.952730
   3         O                -0.949737          2.319913
   4         O                -0.623663          1.311049
   5         O                -0.399866          2.022411
   6         O                -0.380782          1.425923
   7         O                -0.380782          1.425923
   8         V                -0.000658          1.215541
   9         V                -0.000658          1.215541
  10         V                 0.019275          0.317566
  11         V                 0.037223          0.350409
  12         V                 0.077956          0.442374
  13         V                 0.077956          0.442374
  14         V                 0.119386          0.545985
  15         V                 0.182914          0.594310
  16         V                 0.190446          0.572110
  17         V                 0.190446          0.572110
  18         V                 0.245929          0.621805
  19         V                 0.372060          0.994804
  20         V                 0.526409          1.473973
  21         V                 0.526409          1.473973
  22         V                 0.577998          1.111798
  23         V                 0.620196          1.104056
  24         V                 0.620196          1.104056
  25         V                 0.732825          2.196962
  26         V                 0.761837          1.814837
  27         V                 0.771512          1.292037
  28         V                 0.771512          1.292037
  29         V                 0.853776          2.173757
  30         V                 0.853776          2.173757
  31         V                 0.922056          2.581085
  32         V                 1.159750          2.555242
  33         V                 1.163206          1.735965
  34         V                 1.163206          1.735965
  35         V                 1.488482          2.302790
  36         V                 1.488482          2.302790
  37         V                 1.661102          4.314593
  38         V                 2.017086          3.565228
  39         V                 2.081905          2.796602
  40         V                 2.081905          2.796602
  41         V                 2.577366          4.515871
  42         V                 2.650692          4.196471
  43         V                 2.767974          6.264606
  44         V                 2.767974          6.264606
  45         V                 3.196504          5.284581
  46         V                 3.196504          5.284581
  47         V                 3.220178          4.903667
  48         V                 3.220178          4.903667
  49         V                 3.332021          6.330599
  50         V                 3.771165          6.055524
  51         V                 3.980076          8.772377
  52         V                 3.980076          8.772377
  53         V                 4.593697          9.370921
  54         V                 4.783369          7.195280
  55         V                 4.783369          7.195280
  56         V                 5.070730          7.514697
  57         V                 5.070730          7.514697
  58         V                 5.665229          8.716485
  59         V                24.218163         60.544253
  60         V                35.760819         89.010400
 Total kinetic energy from orbitals= 9.304348446692D+01
  Exact polarizability:  11.871   0.000  11.871   0.000   0.000  22.189
 Approx polarizability:  15.163   0.000  15.163   0.000   0.000  38.341
 R6APFD:  NTU= -4 IXU= 1 FactS= 1.050
 Calling FoFJK, ICntrl=    100127 FMM=F ISym2X=1 I1Cent= 0 IOpClX= 0 NMat=1 NMatS=1 NMatT=0.
 Full mass-weighted force constant matrix:
 Low frequencies ---   -4.0071   -4.0071    0.0006    0.0006    0.0006  756.7305
 Low frequencies ---  756.7305 2201.3170 3436.8464
 Diagonal vibrational polarizability:
        1.8724303       1.8724303       0.1661685
 Harmonic frequencies (cm**-1), IR intensities (KM/Mole), Raman scattering
 activities (A**4/AMU), depolarization ratios for plane and unpolarized
 incident light, reduced masses (AMU), force constants (mDyne/A),
 and normal coordinates:
                      1                      2                      3
                     PI                     PI                     SG
 Frequencies --    756.7304               756.7304              2201.3170
 Red. masses --      1.3457                 1.3457                 4.9236
 Frc consts  --      0.4540                 0.4540                14.0573
 IR Inten    --     39.8433                39.8433                 1.8701
  Atom  AN      X      Y      Z        X      Y      Z        X      Y      Z
     1   1    -0.10   0.98   0.00     0.98   0.10   0.00     0.00   0.00   0.82
     2   6     0.02  -0.16   0.00    -0.16  -0.02   0.00     0.00   0.00   0.40
     3   7    -0.01   0.07   0.00     0.07   0.01   0.00     0.00   0.00  -0.40
                      4
                     SG
 Frequencies --   3436.8464
 Red. masses --      1.2007
 Frc consts  --      8.3565
 IR Inten    --     68.3766
  Atom  AN      X      Y      Z
     1   1     0.00   0.00   0.99
     2   6     0.00   0.00  -0.13
     3   7     0.00   0.00   0.04

 -------------------
 - Thermochemistry -
 -------------------
 Temperature   298.150 Kelvin.  Pressure   1.00000 Atm.
 Atom     1 has atomic number  1 and mass   1.00783
 Atom     2 has atomic number  6 and mass  12.00000
 Atom     3 has atomic number  7 and mass  14.00307
 Molecular mass:    27.01090 amu.
 Principal axes and moments of inertia in atomic units:
                           1         2         3
     Eigenvalues --     0.00000  40.17305  40.17305
           X            0.00000   0.00000   1.00000
           Y            0.00000   1.00000   0.00000
           Z            1.00000   0.00000   0.00000
 This molecule is a prolate symmetric top.
 Rotational symmetry number  1.
 Rotational temperature (Kelvin)      2.15602
 Rotational constant (GHZ):          44.924182
 Zero-point vibrational energy      42776.2 (Joules/Mol)
                                   10.22376 (Kcal/Mol)
 Vibrational temperatures:   1088.76  1088.76  3167.20  4944.85
          (Kelvin)
 
 Zero-point correction=                           0.016293 (Hartree/Particle)
 Thermal correction to Energy=                    0.018837
 Thermal correction to Enthalpy=                  0.019781
 Thermal correction to Gibbs Free Energy=        -0.003068
 Sum of electronic and zero-point Energies=            -93.351576
 Sum of electronic and thermal Energies=               -93.349031
 Sum of electronic and thermal Enthalpies=             -93.348087
 Sum of electronic and thermal Free Energies=          -93.370936
 
                     E (Thermal)             CV                S
                      KCal/Mol        Cal/Mol-Kelvin    Cal/Mol-Kelvin
 Total                   11.820              6.423             48.091
 Electronic               0.000              0.000              0.000
 Translational            0.889              2.981             35.816
 Rotational               0.592              1.987             11.783
 Vibrational             10.339              1.455              0.492
                       Q            Log10(Q)             Ln(Q)
 Total Bot       0.257829D+02          1.411332          3.249711
 Total V=0       0.804249D+09          8.905391         20.505420
 Vib (Bot)       0.337898D-07         -7.471215        -17.203107
 Vib (V=0)       0.105401D+01          0.022845          0.052602
 Electronic      0.100000D+01          0.000000          0.000000
 Translational   0.551777D+07          6.741764         15.523485
 Rotational      0.138287D+03          2.140782          4.929334
 ***** Axes restored to original set *****
 -------------------------------------------------------------------
 Center     Atomic                   Forces (Hartrees/Bohr)
 Number     Number              X              Y              Z
 -------------------------------------------------------------------
      1        1           0.000000000    0.000000000   -0.000019099
      2        6           0.000000000    0.000000000    0.000021451
      3        7           0.000000000    0.000000000   -0.000002351
 -------------------------------------------------------------------
 Cartesian Forces:  Max     0.000021451 RMS     0.000009606
 FormGI is forming the generalized inverse of G from B-inverse, IUseBI=4.

 GradGradGradGradGradGradGradGradGradGradGradGradGradGradGradGradGradGrad
 Berny optimization.
 Internal  Forces:  Max     0.000019099 RMS     0.000009622
 Search for a local minimum.
 Step number   1 out of a maximum of    2
 All quantities printed in internal units (Hartrees-Bohrs-Radians)
 Second derivative matrix not updated -- analytic derivatives used.
 The second derivative matrix:
                          R1        R2        A1        A2
           R1           0.39706
           R2          -0.01741   1.29515
           A1           0.00000   0.00000   0.06483
           A2           0.00000   0.00000   0.00000   0.06483
 ITU=  0
     Eigenvalues ---    0.06483   0.06483   0.39672   1.29548
 Angle between quadratic step and forces=   5.62 degrees.
 Linear search not attempted -- first point.
 Iteration  1 RMS(Cart)=  0.00001938 RMS(Int)=  0.00000000
 Iteration  2 RMS(Cart)=  0.00000000 RMS(Int)=  0.00000000
 ClnCor:  largest displacement from symmetrization is 6.52D-15 for atom     2.
 Variable       Old X    -DE/DX   Delta X   Delta X   Delta X     New X
                                 (Linear)    (Quad)   (Total)
    R1        2.02080   0.00002   0.00000   0.00005   0.00005   2.02085
    R2        2.16598   0.00000   0.00000   0.00000   0.00000   2.16598
    A1        3.14159   0.00000   0.00000   0.00000   0.00000   3.14159
    A2        3.14159   0.00000   0.00000   0.00000   0.00000   3.14159
         Item               Value     Threshold  Converged?
 Maximum Force            0.000019     0.000450     YES
 RMS     Force            0.000010     0.000300     YES
 Maximum Displacement     0.000032     0.001800     YES
 RMS     Displacement     0.000019     0.001200     YES
 Predicted change in Energy=-4.602416D-10
 Optimization completed.
    -- Stationary point found.
                           ----------------------------
                           !   Optimized Parameters   !
                           ! (Angstroms and Degrees)  !
 --------------------------                            --------------------------
 ! Name  Definition              Value          Derivative Info.                !
 --------------------------------------------------------------------------------
 ! R1    R(1,2)                  1.0694         -DE/DX =    0.0                 !
 ! R2    R(2,3)                  1.1462         -DE/DX =    0.0                 !
 ! A1    L(1,2,3,-1,-1)        180.0            -DE/DX =    0.0                 !
 ! A2    L(1,2,3,-2,-2)        180.0            -DE/DX =    0.0                 !
 --------------------------------------------------------------------------------
 GradGradGradGradGradGradGradGradGradGradGradGradGradGradGradGradGradGrad

 1|1|UNPC-DESKTOP-KC5UJLK|Freq|RAPFD|6-311+G(2d,p)|C1H1N1|23122|12-Feb-
 2022|0||#N Geom=AllCheck Guess=TCheck SCRF=Check GenChk RAPFD/6-311+G(
 2d,p) Freq||opt freq(GC)||0,1|H,0.,0.,0.0050293142|C,0.,0.,1.074391594
 9|N,0.,0.,2.2205790908||Version=IA32W-G09RevD.01|State=1-SG|HF=-93.367
 8681|RMSD=1.338e-009|RMSF=9.606e-006|ZeroPoint=0.0162926|Thermal=0.018
 837|Dipole=0.,0.,-1.2039973|DipoleDeriv=0.2656648,0.,0.,0.,0.2656648,0
 .,0.,0.,0.2577876,0.0423452,0.,0.,0.,0.0423452,0.,0.,0.,-0.2706954,-0.
 3080101,0.,0.,0.,-0.3080101,0.,0.,0.,0.0129078|Polar=11.8705997,0.,11.
 8705997,0.,0.,22.1886955|PG=C*V [C*(H1C1N1)]|NImag=0||0.01586329,0.,0.
 01586329,0.,0.,0.39706009,-0.03067532,0.,0.,0.05931256,0.,-0.03067532,
 0.,0.,0.05931256,0.,0.,-0.41447021,0.,0.,1.72702675,0.01481202,0.,0.,-
 0.02863724,0.,0.,0.01382522,0.,0.01481202,0.,0.,-0.02863724,0.,0.,0.01
 382522,0.,0.,0.01741013,0.,0.,-1.31255653,0.,0.,1.29514641||0.,0.,0.00
 001910,0.,0.,-0.00002145,0.,0.,0.00000235|||@


 ERROR IS THE FORCE THAT WELDS MEN TOGETHER....
 TRUTH IS COMMUNICATED TO MEN ONLY BY DEEDS OF TRUTH.
           TOLSTOI,MY RELIGION
 Job cpu time:       0 days  0 hours  0 minutes 12.0 seconds.
 File lengths (MBytes):  RWF=      5 Int=      0 D2E=      0 Chk=      2 Scr=      1
 Normal termination of Gaussian 09 at Sat Feb 12 19:06:32 2022.
