 Entering Link 1 = C:\G09W\l1.exe PID=      3852.
  
 Copyright (c) 1988,1990,1992,1993,1995,1998,2003,2009,2013,
            Gaussian, Inc.  All Rights Reserved.
  
 This is part of the Gaussian(R) 09 program.  It is based on
 the Gaussian(R) 03 system (copyright 2003, Gaussian, Inc.),
 the Gaussian(R) 98 system (copyright 1998, Gaussian, Inc.),
 the Gaussian(R) 94 system (copyright 1995, Gaussian, Inc.),
 the Gaussian 92(TM) system (copyright 1992, Gaussian, Inc.),
 the Gaussian 90(TM) system (copyright 1990, Gaussian, Inc.),
 the Gaussian 88(TM) system (copyright 1988, Gaussian, Inc.),
 the Gaussian 86(TM) system (copyright 1986, Carnegie Mellon
 University), and the Gaussian 82(TM) system (copyright 1983,
 Carnegie Mellon University). Gaussian is a federally registered
 trademark of Gaussian, Inc.
  
 This software contains proprietary and confidential information,
 including trade secrets, belonging to Gaussian, Inc.
  
 This software is provided under written license and may be
 used, copied, transmitted, or stored only in accord with that
 written license.
  
 The following legend is applicable only to US Government
 contracts under FAR:
  
                    RESTRICTED RIGHTS LEGEND
  
 Use, reproduction and disclosure by the US Government is
 subject to restrictions as set forth in subparagraphs (a)
 and (c) of the Commercial Computer Software - Restricted
 Rights clause in FAR 52.227-19.
  
 Gaussian, Inc.
 340 Quinnipiac St., Bldg. 40, Wallingford CT 06492
  
  
 ---------------------------------------------------------------
 Warning -- This program may not be used in any manner that
 competes with the business of Gaussian, Inc. or will provide
 assistance to any competitor of Gaussian, Inc.  The licensee
 of this program is prohibited from giving any competitor of
 Gaussian, Inc. access to this program.  By using this program,
 the user acknowledges that Gaussian, Inc. is engaged in the
 business of creating and licensing software in the field of
 computational chemistry and represents and warrants to the
 licensee that it is not a competitor of Gaussian, Inc. and that
 it will not use this program in any manner prohibited above.
 ---------------------------------------------------------------
  

 Cite this work as:
 Gaussian 09, Revision D.01,
 M. J. Frisch, G. W. Trucks, H. B. Schlegel, G. E. Scuseria, 
 M. A. Robb, J. R. Cheeseman, G. Scalmani, V. Barone, B. Mennucci, 
 G. A. Petersson, H. Nakatsuji, M. Caricato, X. Li, H. P. Hratchian, 
 A. F. Izmaylov, J. Bloino, G. Zheng, J. L. Sonnenberg, M. Hada, 
 M. Ehara, K. Toyota, R. Fukuda, J. Hasegawa, M. Ishida, T. Nakajima, 
 Y. Honda, O. Kitao, H. Nakai, T. Vreven, J. A. Montgomery, Jr., 
 J. E. Peralta, F. Ogliaro, M. Bearpark, J. J. Heyd, E. Brothers, 
 K. N. Kudin, V. N. Staroverov, T. Keith, R. Kobayashi, J. Normand, 
 K. Raghavachari, A. Rendell, J. C. Burant, S. S. Iyengar, J. Tomasi, 
 M. Cossi, N. Rega, J. M. Millam, M. Klene, J. E. Knox, J. B. Cross, 
 V. Bakken, C. Adamo, J. Jaramillo, R. Gomperts, R. E. Stratmann, 
 O. Yazyev, A. J. Austin, R. Cammi, C. Pomelli, J. W. Ochterski, 
 R. L. Martin, K. Morokuma, V. G. Zakrzewski, G. A. Voth, 
 P. Salvador, J. J. Dannenberg, S. Dapprich, A. D. Daniels, 
 O. Farkas, J. B. Foresman, J. V. Ortiz, J. Cioslowski, 
 and D. J. Fox, Gaussian, Inc., Wallingford CT, 2013.
 
 ******************************************
 Gaussian 09:  IA32W-G09RevD.01 24-Apr-2013
                18-Mar-2022 
 ******************************************
 %chk=D:\mindmap\gaussian\calculate\opt_freq\ch3cocl\ch3cocl.chk
 %nprocshared=4
 Will use up to    4 processors via shared memory.
 %mem=1GB
 --------------
 # opt freq pm6
 --------------
 1/14=-1,18=20,19=15,26=1,38=1/1,3;
 2/9=110,12=2,17=6,18=5,40=1/2;
 3/5=2,16=1,25=1,41=3900000,71=1/1,2,3;
 4/35=1/1;
 5/5=2,35=1,38=5/2;
 6/7=2,8=2,9=2,10=2,28=1/1;
 7//1,2,3,16;
 1/14=-1,18=20,19=15,26=1/3(2);
 2/9=110/2;
 99//99;
 2/9=110/2;
 3/5=2,16=1,25=1,41=3900000,71=1,135=20/1,2,3;
 4/5=5,16=3,35=1/1;
 5/5=2,35=1,38=5/2;
 7//1,2,3,16;
 1/14=-1,18=20,19=15,26=1/3(-5);
 2/9=110/2;
 6/7=2,8=2,9=2,10=2,19=2,28=1/1;
 99/9=1/99;
 ------------
 opt freq(GC)
 ------------
 Symbolic Z-matrix:
 Charge =  0 Multiplicity = 1
 H
 C                    1     1.07 
 N                    2     1.16     1     180. 
 

 GradGradGradGradGradGradGradGradGradGradGradGradGradGradGradGradGradGrad
 Berny optimization.
 Initialization pass.
                           ----------------------------
                           !    Initial Parameters    !
                           ! (Angstroms and Degrees)  !
 --------------------------                            --------------------------
 ! Name  Definition              Value          Derivative Info.                !
 --------------------------------------------------------------------------------
 ! R1    R(1,2)                  1.07           estimate D2E/DX2                !
 ! R2    R(2,3)                  1.16           estimate D2E/DX2                !
 ! A1    L(1,2,3,-1,-1)        180.0            estimate D2E/DX2                !
 ! A2    L(1,2,3,-2,-2)        180.0            estimate D2E/DX2                !
 --------------------------------------------------------------------------------
 Trust Radius=3.00D-01 FncErr=1.00D-07 GrdErr=1.00D-07
 Number of steps in this run=     20 maximum allowed number of steps=    100.
 GradGradGradGradGradGradGradGradGradGradGradGradGradGradGradGradGradGrad

                          Input orientation:                          
 ---------------------------------------------------------------------
 Center     Atomic      Atomic             Coordinates (Angstroms)
 Number     Number       Type             X           Y           Z
 ---------------------------------------------------------------------
      1          1           0        0.000000    0.000000    0.000000
      2          6           0        0.000000    0.000000    1.070000
      3          7           0        0.000000    0.000000    2.230000
 ---------------------------------------------------------------------
                    Distance matrix (angstroms):
                    1          2          3
     1  H    0.000000
     2  C    1.070000   0.000000
     3  N    2.230000   1.160000   0.000000
 Stoichiometry    CHN
 Framework group  C*V[C*(HCN)]
 Deg. of freedom     2
 Full point group                 C*V     NOp   4
 Largest Abelian subgroup         C2V     NOp   4
 Largest concise Abelian subgroup C1      NOp   1
                         Standard orientation:                         
 ---------------------------------------------------------------------
 Center     Atomic      Atomic             Coordinates (Angstroms)
 Number     Number       Type             X           Y           Z
 ---------------------------------------------------------------------
      1          1           0        0.000000    0.000000   -1.573571
      2          6           0        0.000000    0.000000   -0.503571
      3          7           0        0.000000    0.000000    0.656429
 ---------------------------------------------------------------------
 Rotational constants (GHZ):      0.0000000     44.0151217     44.0151217
 Standard basis: VSTO-6G (5D, 7F)
 There are     5 symmetry adapted cartesian basis functions of A1  symmetry.
 There are     0 symmetry adapted cartesian basis functions of A2  symmetry.
 There are     2 symmetry adapted cartesian basis functions of B1  symmetry.
 There are     2 symmetry adapted cartesian basis functions of B2  symmetry.
 There are     5 symmetry adapted basis functions of A1  symmetry.
 There are     0 symmetry adapted basis functions of A2  symmetry.
 There are     2 symmetry adapted basis functions of B1  symmetry.
 There are     2 symmetry adapted basis functions of B2  symmetry.
     9 basis functions,    54 primitive gaussians,     9 cartesian basis functions
     5 alpha electrons        5 beta electrons
       nuclear repulsion energy        21.3815144007 Hartrees.
 Integral buffers will be    262144 words long.
 Regular integral format.
 Two-electron integral symmetry is turned off.
 Do NDO integrals.
 One-electron integrals computed using PRISM.
 NBasis=     9 RedAO= T EigKep=  2.00D+00  NBF=     5     0     2     2
 NBsUse=     9 1.00D-06 EigRej= -1.00D+00 NBFU=     5     0     2     2
 Simple Huckel Guess.
 Initial guess orbital symmetries:
       Occupied  (SG) (SG) (PI) (PI) (SG)
       Virtual   (PI) (PI) (SG) (SG)
 The electronic state of the initial guess is 1-SG.
 Overlap will be assumed to be unity.
 Keep J ints in memory in canonical form, NReq=877942.
 Requested convergence on RMS density matrix=1.00D-08 within 128 cycles.
 Requested convergence on MAX density matrix=1.00D-06.
 Requested convergence on             energy=1.00D-06.
 No special actions if energy rises.
 Fock symm off for IB=3 I1=    1 I=    6 J=    3 Cut=1.00D-07 Err=3.04D-03
 Fock matrix is not symmetric: symmetry in diagonalization turned off.
 SCF Done:  E(RPM6) =  0.532541947021E-01 A.U. after   12 cycles
            NFock= 11  Conv=0.15D-08     -V/T= 1.0095

 **********************************************************************

            Population analysis using the SCF density.

 **********************************************************************

 Orbital symmetries:
       Occupied  (SG) (SG) (PI) (PI) (SG)
       Virtual   (PI) (PI) (SG) (SG)
 The electronic state is 1-SG.
 Alpha  occ. eigenvalues --   -1.16510  -0.75317  -0.51541  -0.51541  -0.48256
 Alpha virt. eigenvalues --    0.03557   0.03557   0.14829   0.20127
          Condensed to atoms (all electrons):
               1          2          3
     1  H    0.778684   0.000000   0.000000
     2  C    0.000000   4.066326   0.000000
     3  N    0.000000   0.000000   5.154990
 Mulliken charges:
               1
     1  H    0.221316
     2  C   -0.066326
     3  N   -0.154990
 Sum of Mulliken charges =   0.00000
 Mulliken charges with hydrogens summed into heavy atoms:
               1
     2  C    0.154990
     3  N   -0.154990
 Charge=              0.0000 electrons
 Dipole moment (field-independent basis, Debye):
    X=              0.0000    Y=              0.0000    Z=             -2.6932  Tot=              2.6932
 N-N= 2.138151440067D+01 E-N=-3.020749777683D+01  KE=-5.585718840068D+00
 Symmetry A1   KE=-3.947278059388D+00
 Symmetry A2   KE= 0.000000000000D+00
 Symmetry B1   KE=-8.192203903400D-01
 Symmetry B2   KE=-8.192203903400D-01
 Calling FoFJK, ICntrl=      2127 FMM=F ISym2X=1 I1Cent= 0 IOpClX= 0 NMat=1 NMatS=1 NMatT=0.
 ***** Axes restored to original set *****
 -------------------------------------------------------------------
 Center     Atomic                   Forces (Hartrees/Bohr)
 Number     Number              X              Y              Z
 -------------------------------------------------------------------
      1        1           0.000000000    0.000000000    0.009423355
      2        6           0.000000000    0.000000000    0.009676317
      3        7           0.000000000    0.000000000   -0.019099672
 -------------------------------------------------------------------
 Cartesian Forces:  Max     0.019099672 RMS     0.007797636

 GradGradGradGradGradGradGradGradGradGradGradGradGradGradGradGradGradGrad
 Berny optimization.
 FormGI is forming the generalized inverse of G from B-inverse, IUseBI=4.
 Internal  Forces:  Max     0.019099672 RMS     0.010648910
 Search for a local minimum.
 Step number   1 out of a maximum of   20
 All quantities printed in internal units (Hartrees-Bohrs-Radians)
 Mixed Optimization -- RFO/linear search
 Second derivative matrix not updated -- first step.
 The second derivative matrix:
                          R1        R2        A1        A2
           R1           0.37230
           R2           0.00000   1.27794
           A1           0.00000   0.00000   0.04867
           A2           0.00000   0.00000   0.00000   0.04867
 ITU=  0
     Eigenvalues ---    0.04867   0.04867   0.37230   1.27794
 RFO step:  Lambda=-5.23521612D-04 EMin= 4.86652021D-02
 Linear search not attempted -- first point.
 Iteration  1 RMS(Cart)=  0.01437389 RMS(Int)=  0.00000000
 Iteration  2 RMS(Cart)=  0.00000000 RMS(Int)=  0.00000000
 ClnCor:  largest displacement from symmetrization is 4.23D-14 for atom     2.
 Variable       Old X    -DE/DX   Delta X   Delta X   Delta X     New X
                                 (Linear)    (Quad)   (Total)
    R1        2.02201  -0.00942   0.00000  -0.02528  -0.02528   1.99673
    R2        2.19208  -0.01910   0.00000  -0.01494  -0.01494   2.17714
    A1        3.14159   0.00000   0.00000   0.00000   0.00000   3.14159
    A2        3.14159   0.00000   0.00000   0.00000   0.00000   3.14159
         Item               Value     Threshold  Converged?
 Maximum Force            0.019100     0.000450     NO 
 RMS     Force            0.010649     0.000300     NO 
 Maximum Displacement     0.021830     0.001800     NO 
 RMS     Displacement     0.014374     0.001200     NO 
 Predicted change in Energy=-2.619867D-04
 GradGradGradGradGradGradGradGradGradGradGradGradGradGradGradGradGradGrad

                          Input orientation:                          
 ---------------------------------------------------------------------
 Center     Atomic      Atomic             Coordinates (Angstroms)
 Number     Number       Type             X           Y           Z
 ---------------------------------------------------------------------
      1          1           0        0.000000    0.000000    0.011552
      2          6           0        0.000000    0.000000    1.068177
      3          7           0        0.000000    0.000000    2.220271
 ---------------------------------------------------------------------
                    Distance matrix (angstroms):
                    1          2          3
     1  H    0.000000
     2  C    1.056625   0.000000
     3  N    2.208719   1.152094   0.000000
 Stoichiometry    CHN
 Framework group  C*V[C*(HCN)]
 Deg. of freedom     2
 Full point group                 C*V     NOp   4
 Largest Abelian subgroup         C2V     NOp   4
 Largest concise Abelian subgroup C1      NOp   1
                         Standard orientation:                         
 ---------------------------------------------------------------------
 Center     Atomic      Atomic             Coordinates (Angstroms)
 Number     Number       Type             X           Y           Z
 ---------------------------------------------------------------------
      1          1           0        0.000000    0.000000   -1.557199
      2          6           0        0.000000    0.000000   -0.500574
      3          7           0        0.000000    0.000000    0.651520
 ---------------------------------------------------------------------
 Rotational constants (GHZ):      0.0000000     44.6995254     44.6995254
 Standard basis: VSTO-6G (5D, 7F)
 There are     5 symmetry adapted cartesian basis functions of A1  symmetry.
 There are     0 symmetry adapted cartesian basis functions of A2  symmetry.
 There are     2 symmetry adapted cartesian basis functions of B1  symmetry.
 There are     2 symmetry adapted cartesian basis functions of B2  symmetry.
 There are     5 symmetry adapted basis functions of A1  symmetry.
 There are     0 symmetry adapted basis functions of A2  symmetry.
 There are     2 symmetry adapted basis functions of B1  symmetry.
 There are     2 symmetry adapted basis functions of B2  symmetry.
     9 basis functions,    54 primitive gaussians,     9 cartesian basis functions
     5 alpha electrons        5 beta electrons
       nuclear repulsion energy        21.4419528314 Hartrees.
 Integral buffers will be    262144 words long.
 Regular integral format.
 Two-electron integral symmetry is turned off.
 Do NDO integrals.
 One-electron integrals computed using PRISM.
 NBasis=     9 RedAO= T EigKep=  2.00D+00  NBF=     5     0     2     2
 NBsUse=     9 1.00D-06 EigRej= -1.00D+00 NBFU=     5     0     2     2
 Initial guess from the checkpoint file:  "D:\mindmap\gaussian\calculate\opt_freq\ch3cocl\ch3cocl.chk"
 B after Tr=     0.000000    0.000000    0.000000
         Rot=    1.000000    0.000000    0.000000    0.000000 Ang=   0.00 deg.
 Initial guess orbital symmetries:
       Occupied  (SG) (SG) (PI) (PI) (SG)
       Virtual   (PI) (PI) (SG) (SG)
 Overlap will be assumed to be unity.
 Keep J ints in memory in canonical form, NReq=877942.
 Requested convergence on RMS density matrix=1.00D-08 within 128 cycles.
 Requested convergence on MAX density matrix=1.00D-06.
 Requested convergence on             energy=1.00D-06.
 No special actions if energy rises.
 An orbital has undefined symmetry, so N**3 symmetry is turned off.
 SCF Done:  E(RPM6) =  0.529754106382E-01 A.U. after    9 cycles
            NFock=  8  Conv=0.65D-09     -V/T= 1.0095
 Calling FoFJK, ICntrl=      2127 FMM=F ISym2X=1 I1Cent= 0 IOpClX= 0 NMat=1 NMatS=1 NMatT=0.
 ***** Axes restored to original set *****
 -------------------------------------------------------------------
 Center     Atomic                   Forces (Hartrees/Bohr)
 Number     Number              X              Y              Z
 -------------------------------------------------------------------
      1        1           0.000000000    0.000000000    0.002053485
      2        6           0.000000000    0.000000000   -0.003456340
      3        7           0.000000000    0.000000000    0.001402854
 -------------------------------------------------------------------
 Cartesian Forces:  Max     0.003456340 RMS     0.001419354

 GradGradGradGradGradGradGradGradGradGradGradGradGradGradGradGradGradGrad
 Berny optimization.
 Using GEDIIS/GDIIS optimizer.
 Internal  Forces:  Max     0.002053485 RMS     0.001243463
 Search for a local minimum.
 Step number   2 out of a maximum of   20
 All quantities printed in internal units (Hartrees-Bohrs-Radians)
 Mixed Optimization -- RFO/linear search
 Update second derivatives using D2CorX and points    1    2
 DE= -2.79D-04 DEPred=-2.62D-04 R= 1.06D+00
 TightC=F SS=  1.41D+00  RLast= 2.94D-02 DXNew= 5.0454D-01 8.8082D-02
 Trust test= 1.06D+00 RLast= 2.94D-02 DXMaxT set to 3.00D-01
 The second derivative matrix:
                          R1        R2        A1        A2
           R1           0.31328
           R2          -0.03671   1.43447
           A1           0.00000   0.00000   0.04867
           A2           0.00000   0.00000   0.00000   0.04867
 ITU=  1  0
 Use linear search instead of GDIIS.
     Eigenvalues ---    0.04867   0.04867   0.31208   1.43567
 RFO step:  Lambda=-1.23237413D-05 EMin= 4.86652021D-02
 Quartic linear search produced a step of  0.06158.
 Iteration  1 RMS(Cart)=  0.00246279 RMS(Int)=  0.00000000
 Iteration  2 RMS(Cart)=  0.00000000 RMS(Int)=  0.00000000
 ClnCor:  largest displacement from symmetrization is 5.06D-14 for atom     2.
 Variable       Old X    -DE/DX   Delta X   Delta X   Delta X     New X
                                 (Linear)    (Quad)   (Total)
    R1        1.99673  -0.00205  -0.00156  -0.00484  -0.00640   1.99033
    R2        2.17714   0.00140  -0.00092   0.00174   0.00082   2.17796
    A1        3.14159   0.00000   0.00000   0.00000   0.00000   3.14159
    A2        3.14159   0.00000   0.00000   0.00000   0.00000   3.14159
         Item               Value     Threshold  Converged?
 Maximum Force            0.002053     0.000450     NO 
 RMS     Force            0.001243     0.000300     NO 
 Maximum Displacement     0.003994     0.001800     NO 
 RMS     Displacement     0.002463     0.001200     NO 
 Predicted change in Energy=-7.201794D-06
 GradGradGradGradGradGradGradGradGradGradGradGradGradGradGradGradGradGrad

                          Input orientation:                          
 ---------------------------------------------------------------------
 Center     Atomic      Atomic             Coordinates (Angstroms)
 Number     Number       Type             X           Y           Z
 ---------------------------------------------------------------------
      1          1           0        0.000000    0.000000    0.013665
      2          6           0        0.000000    0.000000    1.066903
      3          7           0        0.000000    0.000000    2.219432
 ---------------------------------------------------------------------
                    Distance matrix (angstroms):
                    1          2          3
     1  H    0.000000
     2  C    1.053237   0.000000
     3  N    2.205766   1.152529   0.000000
 Stoichiometry    CHN
 Framework group  C*V[C*(HCN)]
 Deg. of freedom     2
 Full point group                 C*V     NOp   4
 Largest Abelian subgroup         C2V     NOp   4
 Largest concise Abelian subgroup C1      NOp   1
                         Standard orientation:                         
 ---------------------------------------------------------------------
 Center     Atomic      Atomic             Coordinates (Angstroms)
 Number     Number       Type             X           Y           Z
 ---------------------------------------------------------------------
      1          1           0        0.000000    0.000000   -1.554271
      2          6           0        0.000000    0.000000   -0.501033
      3          7           0        0.000000    0.000000    0.651496
 ---------------------------------------------------------------------
 Rotational constants (GHZ):      0.0000000     44.7144651     44.7144651
 Standard basis: VSTO-6G (5D, 7F)
 There are     5 symmetry adapted cartesian basis functions of A1  symmetry.
 There are     0 symmetry adapted cartesian basis functions of A2  symmetry.
 There are     2 symmetry adapted cartesian basis functions of B1  symmetry.
 There are     2 symmetry adapted cartesian basis functions of B2  symmetry.
 There are     5 symmetry adapted basis functions of A1  symmetry.
 There are     0 symmetry adapted basis functions of A2  symmetry.
 There are     2 symmetry adapted basis functions of B1  symmetry.
 There are     2 symmetry adapted basis functions of B2  symmetry.
     9 basis functions,    54 primitive gaussians,     9 cartesian basis functions
     5 alpha electrons        5 beta electrons
       nuclear repulsion energy        21.4452893923 Hartrees.
 Integral buffers will be    262144 words long.
 Regular integral format.
 Two-electron integral symmetry is turned off.
 Do NDO integrals.
 One-electron integrals computed using PRISM.
 NBasis=     9 RedAO= T EigKep=  2.00D+00  NBF=     5     0     2     2
 NBsUse=     9 1.00D-06 EigRej= -1.00D+00 NBFU=     5     0     2     2
 Initial guess from the checkpoint file:  "D:\mindmap\gaussian\calculate\opt_freq\ch3cocl\ch3cocl.chk"
 B after Tr=     0.000000    0.000000    0.000000
         Rot=    1.000000    0.000000    0.000000    0.000000 Ang=   0.00 deg.
 Initial guess orbital symmetries:
       Occupied  (SG) (SG) (PI) (PI) (SG)
       Virtual   (PI) (PI) (SG) (SG)
 Overlap will be assumed to be unity.
 Keep J ints in memory in canonical form, NReq=877942.
 Requested convergence on RMS density matrix=1.00D-08 within 128 cycles.
 Requested convergence on MAX density matrix=1.00D-06.
 Requested convergence on             energy=1.00D-06.
 No special actions if energy rises.
 Fock symm off for IB=3 I1=    1 I=    6 J=    3 Cut=1.00D-07 Err=5.51D-07
 Fock matrix is not symmetric: symmetry in diagonalization turned off.
 SCF Done:  E(RPM6) =  0.529668977424E-01 A.U. after    8 cycles
            NFock=  7  Conv=0.94D-09     -V/T= 1.0094
 Calling FoFJK, ICntrl=      2127 FMM=F ISym2X=1 I1Cent= 0 IOpClX= 0 NMat=1 NMatS=1 NMatT=0.
 ***** Axes restored to original set *****
 -------------------------------------------------------------------
 Center     Atomic                   Forces (Hartrees/Bohr)
 Number     Number              X              Y              Z
 -------------------------------------------------------------------
      1        1           0.000000000    0.000000000    0.000348015
      2        6           0.000000000    0.000000000   -0.000941649
      3        7           0.000000000    0.000000000    0.000593634
 -------------------------------------------------------------------
 Cartesian Forces:  Max     0.000941649 RMS     0.000388761

 GradGradGradGradGradGradGradGradGradGradGradGradGradGradGradGradGradGrad
 Berny optimization.
 Using GEDIIS/GDIIS optimizer.
 Internal  Forces:  Max     0.000593634 RMS     0.000344062
 Search for a local minimum.
 Step number   3 out of a maximum of   20
 All quantities printed in internal units (Hartrees-Bohrs-Radians)
 Mixed Optimization -- En-DIIS/RFO-DIIS
 Update second derivatives using D2CorX and points    1    2    3
 DE= -8.51D-06 DEPred=-7.20D-06 R= 1.18D+00
 TightC=F SS=  1.41D+00  RLast= 6.45D-03 DXNew= 5.0454D-01 1.9361D-02
 Trust test= 1.18D+00 RLast= 6.45D-03 DXMaxT set to 3.00D-01
 The second derivative matrix:
                          R1        R2        A1        A2
           R1           0.27297
           R2           0.05094   1.38198
           A1           0.00000   0.00000   0.04867
           A2           0.00000   0.00000   0.00000   0.04867
 ITU=  1  1  0
 Use linear search instead of GDIIS.
     Eigenvalues ---    0.04867   0.04867   0.27063   1.38432
 RFO step:  Lambda=-1.23431812D-07 EMin= 4.86652021D-02
 Quartic linear search produced a step of  0.23348.
 Iteration  1 RMS(Cart)=  0.00048701 RMS(Int)=  0.00000000
 Iteration  2 RMS(Cart)=  0.00000000 RMS(Int)=  0.00000000
 ClnCor:  largest displacement from symmetrization is 1.83D-14 for atom     2.
 Variable       Old X    -DE/DX   Delta X   Delta X   Delta X     New X
                                 (Linear)    (Quad)   (Total)
    R1        1.99033  -0.00035  -0.00149   0.00014  -0.00136   1.98897
    R2        2.17796   0.00059   0.00019   0.00029   0.00048   2.17844
    A1        3.14159   0.00000   0.00000   0.00000   0.00000   3.14159
    A2        3.14159   0.00000   0.00000   0.00000   0.00000   3.14159
         Item               Value     Threshold  Converged?
 Maximum Force            0.000594     0.000450     NO 
 RMS     Force            0.000344     0.000300     NO 
 Maximum Displacement     0.000746     0.001800     YES
 RMS     Displacement     0.000487     0.001200     YES
 Predicted change in Energy=-3.798531D-07
 GradGradGradGradGradGradGradGradGradGradGradGradGradGradGradGradGradGrad

                          Input orientation:                          
 ---------------------------------------------------------------------
 Center     Atomic      Atomic             Coordinates (Angstroms)
 Number     Number       Type             X           Y           Z
 ---------------------------------------------------------------------
      1          1           0        0.000000    0.000000    0.014060
      2          6           0        0.000000    0.000000    1.066579
      3          7           0        0.000000    0.000000    2.219361
 ---------------------------------------------------------------------
                    Distance matrix (angstroms):
                    1          2          3
     1  H    0.000000
     2  C    1.052519   0.000000
     3  N    2.205301   1.152783   0.000000
 Stoichiometry    CHN
 Framework group  C*V[C*(HCN)]
 Deg. of freedom     2
 Full point group                 C*V     NOp   4
 Largest Abelian subgroup         C2V     NOp   4
 Largest concise Abelian subgroup C1      NOp   1
                         Standard orientation:                         
 ---------------------------------------------------------------------
 Center     Atomic      Atomic             Coordinates (Angstroms)
 Number     Number       Type             X           Y           Z
 ---------------------------------------------------------------------
      1          1           0        0.000000    0.000000   -1.553730
      2          6           0        0.000000    0.000000   -0.501211
      3          7           0        0.000000    0.000000    0.651571
 ---------------------------------------------------------------------
 Rotational constants (GHZ):      0.0000000     44.7069910     44.7069910
 Standard basis: VSTO-6G (5D, 7F)
 There are     5 symmetry adapted cartesian basis functions of A1  symmetry.
 There are     0 symmetry adapted cartesian basis functions of A2  symmetry.
 There are     2 symmetry adapted cartesian basis functions of B1  symmetry.
 There are     2 symmetry adapted cartesian basis functions of B2  symmetry.
 There are     5 symmetry adapted basis functions of A1  symmetry.
 There are     0 symmetry adapted basis functions of A2  symmetry.
 There are     2 symmetry adapted basis functions of B1  symmetry.
 There are     2 symmetry adapted basis functions of B2  symmetry.
     9 basis functions,    54 primitive gaussians,     9 cartesian basis functions
     5 alpha electrons        5 beta electrons
       nuclear repulsion energy        21.4451998080 Hartrees.
 Integral buffers will be    262144 words long.
 Regular integral format.
 Two-electron integral symmetry is turned off.
 Do NDO integrals.
 One-electron integrals computed using PRISM.
 NBasis=     9 RedAO= T EigKep=  2.00D+00  NBF=     5     0     2     2
 NBsUse=     9 1.00D-06 EigRej= -1.00D+00 NBFU=     5     0     2     2
 Initial guess from the checkpoint file:  "D:\mindmap\gaussian\calculate\opt_freq\ch3cocl\ch3cocl.chk"
 B after Tr=     0.000000    0.000000    0.000000
         Rot=    1.000000    0.000000    0.000000    0.000000 Ang=   0.00 deg.
 Initial guess orbital symmetries:
       Occupied  (SG) (SG) (PI) (PI) (SG)
       Virtual   (PI) (PI) (SG) (SG)
 Overlap will be assumed to be unity.
 Keep J ints in memory in canonical form, NReq=877942.
 Requested convergence on RMS density matrix=1.00D-08 within 128 cycles.
 Requested convergence on MAX density matrix=1.00D-06.
 Requested convergence on             energy=1.00D-06.
 No special actions if energy rises.
 An orbital has undefined symmetry, so N**3 symmetry is turned off.
 SCF Done:  E(RPM6) =  0.529665160076E-01 A.U. after    7 cycles
            NFock=  6  Conv=0.33D-08     -V/T= 1.0094
 Calling FoFJK, ICntrl=      2127 FMM=F ISym2X=1 I1Cent= 0 IOpClX= 0 NMat=1 NMatS=1 NMatT=0.
 ***** Axes restored to original set *****
 -------------------------------------------------------------------
 Center     Atomic                   Forces (Hartrees/Bohr)
 Number     Number              X              Y              Z
 -------------------------------------------------------------------
      1        1           0.000000000    0.000000000   -0.000002080
      2        6           0.000000000    0.000000000   -0.000016673
      3        7           0.000000000    0.000000000    0.000018752
 -------------------------------------------------------------------
 Cartesian Forces:  Max     0.000018752 RMS     0.000008393

 GradGradGradGradGradGradGradGradGradGradGradGradGradGradGradGradGradGrad
 Berny optimization.
 Using GEDIIS/GDIIS optimizer.
 Internal  Forces:  Max     0.000018752 RMS     0.000009434
 Search for a local minimum.
 Step number   4 out of a maximum of   20
 All quantities printed in internal units (Hartrees-Bohrs-Radians)
 Mixed Optimization -- En-DIIS/RFO-DIIS
 Swapping is turned off.
 Update second derivatives using D2CorX and points    1    2    3    4
 DE= -3.82D-07 DEPred=-3.80D-07 R= 1.00D+00
 Trust test= 1.00D+00 RLast= 1.44D-03 DXMaxT set to 3.00D-01
 The second derivative matrix:
                          R1        R2        A1        A2
           R1           0.27193
           R2           0.04006   1.31251
           A1           0.00000   0.00000   0.04867
           A2           0.00000   0.00000   0.00000   0.04867
 ITU=  0  1  1  0
     Eigenvalues ---    0.04867   0.04867   0.27039   1.31405
 En-DIIS/RFO-DIIS IScMMF=        0 using points:     4    3
 RFO step:  Lambda= 0.00000000D+00.
 DidBck=F Rises=F RFO-DIIS coefs:    1.00821   -0.00821
 Iteration  1 RMS(Cart)=  0.00000718 RMS(Int)=  0.00000000
 Iteration  2 RMS(Cart)=  0.00000000 RMS(Int)=  0.00000000
 ClnCor:  largest displacement from symmetrization is 3.23D-14 for atom     2.
 Variable       Old X    -DE/DX   Delta X   Delta X   Delta X     New X
                                 (Linear)    (Quad)   (Total)
    R1        1.98897   0.00000  -0.00001   0.00002   0.00001   1.98898
    R2        2.17844   0.00002   0.00000   0.00001   0.00001   2.17846
    A1        3.14159   0.00000   0.00000   0.00000   0.00000   3.14159
    A2        3.14159   0.00000   0.00000   0.00000   0.00000   3.14159
         Item               Value     Threshold  Converged?
 Maximum Force            0.000019     0.000450     YES
 RMS     Force            0.000009     0.000300     YES
 Maximum Displacement     0.000011     0.001800     YES
 RMS     Displacement     0.000007     0.001200     YES
 Predicted change in Energy=-1.381608D-10
 Optimization completed.
    -- Stationary point found.
                           ----------------------------
                           !   Optimized Parameters   !
                           ! (Angstroms and Degrees)  !
 --------------------------                            --------------------------
 ! Name  Definition              Value          Derivative Info.                !
 --------------------------------------------------------------------------------
 ! R1    R(1,2)                  1.0525         -DE/DX =    0.0                 !
 ! R2    R(2,3)                  1.1528         -DE/DX =    0.0                 !
 ! A1    L(1,2,3,-1,-1)        180.0            -DE/DX =    0.0                 !
 ! A2    L(1,2,3,-2,-2)        180.0            -DE/DX =    0.0                 !
 --------------------------------------------------------------------------------
 GradGradGradGradGradGradGradGradGradGradGradGradGradGradGradGradGradGrad

                          Input orientation:                          
 ---------------------------------------------------------------------
 Center     Atomic      Atomic             Coordinates (Angstroms)
 Number     Number       Type             X           Y           Z
 ---------------------------------------------------------------------
      1          1           0        0.000000    0.000000    0.014060
      2          6           0        0.000000    0.000000    1.066579
      3          7           0        0.000000    0.000000    2.219361
 ---------------------------------------------------------------------
                    Distance matrix (angstroms):
                    1          2          3
     1  H    0.000000
     2  C    1.052519   0.000000
     3  N    2.205301   1.152783   0.000000
 Stoichiometry    CHN
 Framework group  C*V[C*(HCN)]
 Deg. of freedom     2
 Full point group                 C*V     NOp   4
 Largest Abelian subgroup         C2V     NOp   4
 Largest concise Abelian subgroup C1      NOp   1
                         Standard orientation:                         
 ---------------------------------------------------------------------
 Center     Atomic      Atomic             Coordinates (Angstroms)
 Number     Number       Type             X           Y           Z
 ---------------------------------------------------------------------
      1          1           0        0.000000    0.000000   -1.553730
      2          6           0        0.000000    0.000000   -0.501211
      3          7           0        0.000000    0.000000    0.651571
 ---------------------------------------------------------------------
 Rotational constants (GHZ):      0.0000000     44.7069910     44.7069910

 **********************************************************************

            Population analysis using the SCF density.

 **********************************************************************

 Orbital symmetries:
       Occupied  (SG) (SG) (PI) (PI) (SG)
       Virtual   (PI) (PI) (SG) (SG)
 The electronic state is 1-SG.
 Alpha  occ. eigenvalues --   -1.17210  -0.75883  -0.51873  -0.51873  -0.48236
 Alpha virt. eigenvalues --    0.03640   0.03640   0.15304   0.20143
          Condensed to atoms (all electrons):
               1          2          3
     1  H    0.783203   0.000000   0.000000
     2  C    0.000000   4.064142   0.000000
     3  N    0.000000   0.000000   5.152654
 Mulliken charges:
               1
     1  H    0.216797
     2  C   -0.064142
     3  N   -0.152654
 Sum of Mulliken charges =   0.00000
 Mulliken charges with hydrogens summed into heavy atoms:
               1
     2  C    0.152654
     3  N   -0.152654
 Charge=              0.0000 electrons
 Dipole moment (field-independent basis, Debye):
    X=              0.0000    Y=              0.0000    Z=             -2.6456  Tot=              2.6456
 N-N= 2.144519980801D+01 E-N=-3.027757462890D+01  KE=-5.605390082370D+00
 Symmetry A1   KE=-3.960711746636D+00
 Symmetry A2   KE= 0.000000000000D+00
 Symmetry B1   KE=-8.223391678672D-01
 Symmetry B2   KE=-8.223391678672D-01
 1|1|UNPC-DESKTOP-KC5UJLK|FOpt|RPM6|ZDO|C1H1N1|23122|18-Mar-2022|0||# o
 pt freq pm6||opt freq(GC)||0,1|H,0.,0.,0.0140599532|C,0.,0.,1.06657865
 05|N,0.,0.,2.2193613964||Version=IA32W-G09RevD.01|State=1-SG|HF=0.0529
 665|RMSD=3.310e-009|RMSF=8.393e-006|Dipole=0.,0.,-1.0408553|PG=C*V [C*
 (H1C1N1)]||@


 ALL SCIENCE IS EITHER PHYSICS, OR STAMP COLLECTING.
   --ERNEST RUTHERFORD, 1871-1937.
 Job cpu time:       0 days  0 hours  0 minutes  9.0 seconds.
 File lengths (MBytes):  RWF=      5 Int=      0 D2E=      0 Chk=      2 Scr=      1
 Normal termination of Gaussian 09 at Fri Mar 18 11:51:02 2022.
 Link1:  Proceeding to internal job step number  2.
 -------------------------------------------------------------
 #N Geom=AllCheck Guess=TCheck SCRF=Check GenChk RPM6/ZDO Freq
 -------------------------------------------------------------
 1/10=4,29=7,30=1,38=1,40=1/1,3;
 2/12=2,40=1/2;
 3/5=2,14=-4,16=1,25=1,41=3900000,70=2,71=2,116=1,135=40,140=1/1,2,3;
 4/5=101,35=1/1;
 5/5=2,35=1,98=1/2;
 8/6=4,10=90,11=11/1;
 11/6=1,8=1,9=11,15=111,16=1/1,2,10;
 10/6=1/2;
 6/7=2,8=2,9=2,10=2,18=1,28=1/1;
 7/8=1,10=1,25=1/1,2,3,16;
 1/10=4,30=1/3;
 99//99;
 Structure from the checkpoint file:  "D:\mindmap\gaussian\calculate\opt_freq\ch3cocl\ch3cocl.chk"
 ------------
 opt freq(GC)
 ------------
 Charge =  0 Multiplicity = 1
 Redundant internal coordinates found in file.
 H,0,0.,0.,0.0140599532
 C,0,0.,0.,1.0665786505
 N,0,0.,0.,2.2193613964
 Recover connectivity data from disk.

 GradGradGradGradGradGradGradGradGradGradGradGradGradGradGradGradGradGrad
 Berny optimization.
 Initialization pass.
                           ----------------------------
                           !    Initial Parameters    !
                           ! (Angstroms and Degrees)  !
 --------------------------                            --------------------------
 ! Name  Definition              Value          Derivative Info.                !
 --------------------------------------------------------------------------------
 ! R1    R(1,2)                  1.0525         calculate D2E/DX2 analytically  !
 ! R2    R(2,3)                  1.1528         calculate D2E/DX2 analytically  !
 ! A1    L(1,2,3,-1,-1)        180.0            calculate D2E/DX2 analytically  !
 ! A2    L(1,2,3,-2,-2)        180.0            calculate D2E/DX2 analytically  !
 --------------------------------------------------------------------------------
 Trust Radius=3.00D-01 FncErr=1.00D-07 GrdErr=1.00D-07
 Number of steps in this run=      2 maximum allowed number of steps=      2.
 GradGradGradGradGradGradGradGradGradGradGradGradGradGradGradGradGradGrad

                          Input orientation:                          
 ---------------------------------------------------------------------
 Center     Atomic      Atomic             Coordinates (Angstroms)
 Number     Number       Type             X           Y           Z
 ---------------------------------------------------------------------
      1          1           0        0.000000    0.000000    0.014060
      2          6           0        0.000000    0.000000    1.066579
      3          7           0        0.000000    0.000000    2.219361
 ---------------------------------------------------------------------
                    Distance matrix (angstroms):
                    1          2          3
     1  H    0.000000
     2  C    1.052519   0.000000
     3  N    2.205301   1.152783   0.000000
 Stoichiometry    CHN
 Framework group  C*V[C*(HCN)]
 Deg. of freedom     2
 Full point group                 C*V     NOp   4
 Largest Abelian subgroup         C2V     NOp   4
 Largest concise Abelian subgroup C1      NOp   1
                         Standard orientation:                         
 ---------------------------------------------------------------------
 Center     Atomic      Atomic             Coordinates (Angstroms)
 Number     Number       Type             X           Y           Z
 ---------------------------------------------------------------------
      1          1           0        0.000000    0.000000   -1.553730
      2          6           0        0.000000    0.000000   -0.501211
      3          7           0        0.000000    0.000000    0.651571
 ---------------------------------------------------------------------
 Rotational constants (GHZ):      0.0000000     44.7069910     44.7069910
 Standard basis: VSTO-6G (5D, 7F)
 There are     5 symmetry adapted cartesian basis functions of A1  symmetry.
 There are     0 symmetry adapted cartesian basis functions of A2  symmetry.
 There are     2 symmetry adapted cartesian basis functions of B1  symmetry.
 There are     2 symmetry adapted cartesian basis functions of B2  symmetry.
 There are     5 symmetry adapted basis functions of A1  symmetry.
 There are     0 symmetry adapted basis functions of A2  symmetry.
 There are     2 symmetry adapted basis functions of B1  symmetry.
 There are     2 symmetry adapted basis functions of B2  symmetry.
     9 basis functions,    54 primitive gaussians,     9 cartesian basis functions
     5 alpha electrons        5 beta electrons
       nuclear repulsion energy        21.4451998080 Hartrees.
 Integral buffers will be    262144 words long.
 Regular integral format.
 Two-electron integral symmetry is turned off.
 Do NDO integrals.
 One-electron integrals computed using PRISM.
 NBasis=     9 RedAO= T EigKep=  2.00D+00  NBF=     5     0     2     2
 NBsUse=     9 1.00D-06 EigRej= -1.00D+00 NBFU=     5     0     2     2
 Initial guess from the checkpoint file:  "D:\mindmap\gaussian\calculate\opt_freq\ch3cocl\ch3cocl.chk"
 B after Tr=     0.000000    0.000000    0.000000
         Rot=    1.000000    0.000000    0.000000    0.000000 Ang=   0.00 deg.
 Initial guess orbital symmetries:
       Occupied  (SG) (SG) (PI) (PI) (SG)
       Virtual   (PI) (PI) (SG) (SG)
 Overlap will be assumed to be unity.
 Keep J ints in memory in canonical form, NReq=877942.
 Requested convergence on RMS density matrix=1.00D-08 within 128 cycles.
 Requested convergence on MAX density matrix=1.00D-06.
 Requested convergence on             energy=1.00D-06.
 No special actions if energy rises.
 An orbital has undefined symmetry, so N**3 symmetry is turned off.
 SCF Done:  E(RPM6) =  0.529665160076E-01 A.U. after    2 cycles
            NFock=  1  Conv=0.24D-09     -V/T= 1.0094
 Range of M.O.s used for correlation:     1     9
 NBasis=     9 NAE=     5 NBE=     5 NFC=     0 NFV=     0
 NROrb=      9 NOA=     5 NOB=     5 NVA=     4 NVB=     4
 Symmetrizing basis deriv contribution to polar:
 IMax=3 JMax=2 DiffMx= 0.00D+00
 G2DrvN: will do     4 centers at a time, making    1 passes.
 Calling FoFCou, ICntrl=  3107 FMM=F I1Cent=   0 AccDes= 0.00D+00.
 End of G2Drv F.D. properties file   721 does not exist.
 End of G2Drv F.D. properties file   722 does not exist.
 End of G2Drv F.D. properties file   788 does not exist.
          IDoAtm=111
          Differentiating once with respect to electric field.
                with respect to dipole field.
          Differentiating once with respect to nuclear coordinates.
          Electric field/nuclear overlap derivatives assumed to be zero.
 Keep J ints in memory in canonical form, NReq=859582.
          There are    12 degrees of freedom in the 1st order CPHF.  IDoFFX=5 NUNeed=    12.
 LinEq1:  Iter=  0 NonCon=    12 RMS=6.75D-01 Max=1.73D+00 NDo=    12
 AX will form    12 AO Fock derivatives at one time.
 LinEq1:  Iter=  1 NonCon=    12 RMS=8.24D-02 Max=2.60D-01 NDo=    12
 LinEq1:  Iter=  2 NonCon=    12 RMS=5.52D-03 Max=1.68D-02 NDo=    12
 LinEq1:  Iter=  3 NonCon=    12 RMS=4.85D-04 Max=1.29D-03 NDo=    12
 LinEq1:  Iter=  4 NonCon=    12 RMS=2.54D-05 Max=7.03D-05 NDo=    12
 LinEq1:  Iter=  5 NonCon=     4 RMS=1.64D-06 Max=4.57D-06 NDo=    12
 LinEq1:  Iter=  6 NonCon=     1 RMS=3.16D-08 Max=8.15D-08 NDo=    12
 LinEq1:  Iter=  7 NonCon=     0 RMS=3.39D-20 Max=1.09D-19 NDo=    12
 Linear equations converged to 1.000D-08 1.000D-07 after     7 iterations.
 Isotropic polarizability for W=    0.000000        9.78 Bohr**3.
 End of Minotr F.D. properties file   721 does not exist.
 End of Minotr F.D. properties file   722 does not exist.
 End of Minotr F.D. properties file   788 does not exist.

 **********************************************************************

            Population analysis using the SCF density.

 **********************************************************************

 Orbital symmetries:
       Occupied  (SG) (SG) (PI) (PI) (SG)
       Virtual   (PI) (PI) (SG) (SG)
 The electronic state is 1-SG.
 Alpha  occ. eigenvalues --   -1.17210  -0.75883  -0.51873  -0.51873  -0.48236
 Alpha virt. eigenvalues --    0.03640   0.03640   0.15304   0.20143
          Condensed to atoms (all electrons):
               1          2          3
     1  H    0.783203   0.000000   0.000000
     2  C    0.000000   4.064142   0.000000
     3  N    0.000000   0.000000   5.152654
 Mulliken charges:
               1
     1  H    0.216797
     2  C   -0.064142
     3  N   -0.152654
 Sum of Mulliken charges =   0.00000
 Mulliken charges with hydrogens summed into heavy atoms:
               1
     2  C    0.152654
     3  N   -0.152654
 APT charges:
               1
     1  H    0.324245
     2  C   -0.057589
     3  N   -0.266656
 Sum of APT charges =   0.00000
 APT charges with hydrogens summed into heavy atoms:
               1
     2  C    0.266656
     3  N   -0.266656
 Charge=              0.0000 electrons
 Dipole moment (field-independent basis, Debye):
    X=              0.0000    Y=              0.0000    Z=             -2.6456  Tot=              2.6456
 N-N= 2.144519980801D+01 E-N=-3.027757462933D+01  KE=-5.605390082428D+00
 Symmetry A1   KE=-3.960711746678D+00
 Symmetry A2   KE= 0.000000000000D+00
 Symmetry B1   KE=-8.223391678750D-01
 Symmetry B2   KE=-8.223391678750D-01
  Exact polarizability:   3.422   0.000   3.422   0.000   0.000  22.508
 Approx polarizability:   2.103   0.000   2.103   0.000   0.000  21.092
 Calling FoFJK, ICntrl=    100127 FMM=F ISym2X=1 I1Cent= 0 IOpClX= 0 NMat=1 NMatS=1 NMatT=0.
 Full mass-weighted force constant matrix:
 Low frequencies ---   -5.4267   -5.4267   -0.0001    0.0000    0.0000  973.8972
 Low frequencies ---  973.8972 2245.5368 2818.3936
 Diagonal vibrational polarizability:
        1.5205687       1.5205687       0.6798231
 Harmonic frequencies (cm**-1), IR intensities (KM/Mole), Raman scattering
 activities (A**4/AMU), depolarization ratios for plane and unpolarized
 incident light, reduced masses (AMU), force constants (mDyne/A),
 and normal coordinates:
                      1                      2                      3
                     PI                     PI                     SG
 Frequencies --    973.8972               973.8972              2245.5368
 Red. masses --      1.3377                 1.3377                 4.3969
 Frc consts  --      0.7476                 0.7476                13.0628
 IR Inten    --     53.5919                53.5919                47.6585
  Atom  AN      X      Y      Z        X      Y      Z        X      Y      Z
     1   1    -0.10   0.98   0.00     0.98   0.10   0.00     0.00   0.00   0.85
     2   6     0.02  -0.16   0.00    -0.16  -0.02   0.00     0.00   0.00   0.37
     3   7    -0.01   0.06   0.00     0.06   0.01   0.00     0.00   0.00  -0.38
                      4
                     SG
 Frequencies --   2818.3936
 Red. masses --      1.2369
 Frc consts  --      5.7887
 IR Inten    --    125.5861
  Atom  AN      X      Y      Z
     1   1     0.00   0.00   0.99
     2   6     0.00   0.00  -0.14
     3   7     0.00   0.00   0.05

 -------------------
 - Thermochemistry -
 -------------------
 Temperature   298.150 Kelvin.  Pressure   1.00000 Atm.
 Atom     1 has atomic number  1 and mass   1.00783
 Atom     2 has atomic number  6 and mass  12.00000
 Atom     3 has atomic number  7 and mass  14.00307
 Molecular mass:    27.01090 amu.
 Principal axes and moments of inertia in atomic units:
                           1         2         3
     Eigenvalues --     0.00000  40.36821  40.36821
           X            0.00000   0.00000   1.00000
           Y            0.00000   1.00000   0.00000
           Z            1.00000   0.00000   0.00000
 This molecule is a prolate symmetric top.
 Rotational symmetry number  1.
 Rotational temperature (Kelvin)      2.14559
 Rotational constant (GHZ):          44.706991
 Zero-point vibrational energy      41939.4 (Joules/Mol)
                                   10.02376 (Kcal/Mol)
 Vibrational temperatures:   1401.22  1401.22  3230.82  4055.03
          (Kelvin)
 
 Zero-point correction=                           0.015974 (Hartree/Particle)
 Thermal correction to Energy=                    0.018416
 Thermal correction to Enthalpy=                  0.019360
 Thermal correction to Gibbs Free Energy=        -0.003359
 Sum of electronic and zero-point Energies=              0.068940
 Sum of electronic and thermal Energies=                 0.071383
 Sum of electronic and thermal Enthalpies=               0.072327
 Sum of electronic and thermal Free Energies=            0.049607
 
                     E (Thermal)             CV                S
                      KCal/Mol        Cal/Mol-Kelvin    Cal/Mol-Kelvin
 Total                   11.556              5.786             47.817
 Electronic               0.000              0.000              0.000
 Translational            0.889              2.981             35.816
 Rotational               0.592              1.987             11.792
 Vibrational             10.075              0.818              0.208
                       Q            Log10(Q)             Ln(Q)
 Total Bot       0.350863D+02          1.545137          3.557810
 Total V=0       0.780906D+09          8.892598         20.475965
 Vib (Bot)       0.457601D-07         -7.339513        -16.899854
 Vib (V=0)       0.101847D+01          0.007948          0.018300
 Electronic      0.100000D+01          0.000000          0.000000
 Translational   0.551777D+07          6.741764         15.523485
 Rotational      0.138959D+03          2.142887          4.934180
 ***** Axes restored to original set *****
 -------------------------------------------------------------------
 Center     Atomic                   Forces (Hartrees/Bohr)
 Number     Number              X              Y              Z
 -------------------------------------------------------------------
      1        1           0.000000000    0.000000000   -0.000002080
      2        6           0.000000000    0.000000000   -0.000016673
      3        7           0.000000000    0.000000000    0.000018753
 -------------------------------------------------------------------
 Cartesian Forces:  Max     0.000018753 RMS     0.000008393
 FormGI is forming the generalized inverse of G from B-inverse, IUseBI=4.

 GradGradGradGradGradGradGradGradGradGradGradGradGradGradGradGradGradGrad
 Berny optimization.
 Internal  Forces:  Max     0.000018753 RMS     0.000009434
 Search for a local minimum.
 Step number   1 out of a maximum of    2
 All quantities printed in internal units (Hartrees-Bohrs-Radians)
 Second derivative matrix not updated -- analytic derivatives used.
 The second derivative matrix:
                          R1        R2        A1        A2
           R1           0.27345
           R2           0.04377   1.32225
           A1           0.00000   0.00000   0.10466
           A2           0.00000   0.00000   0.00000   0.10466
 ITU=  0
     Eigenvalues ---    0.10466   0.10466   0.27162   1.32407
 Angle between quadratic step and forces=  14.63 degrees.
 Linear search not attempted -- first point.
 Iteration  1 RMS(Cart)=  0.00000707 RMS(Int)=  0.00000000
 Iteration  2 RMS(Cart)=  0.00000000 RMS(Int)=  0.00000000
 ClnCor:  largest displacement from symmetrization is 1.44D-14 for atom     2.
 Variable       Old X    -DE/DX   Delta X   Delta X   Delta X     New X
                                 (Linear)    (Quad)   (Total)
    R1        1.98897   0.00000   0.00000   0.00001   0.00001   1.98898
    R2        2.17844   0.00002   0.00000   0.00001   0.00001   2.17846
    A1        3.14159   0.00000   0.00000   0.00000   0.00000   3.14159
    A2        3.14159   0.00000   0.00000   0.00000   0.00000   3.14159
         Item               Value     Threshold  Converged?
 Maximum Force            0.000019     0.000450     YES
 RMS     Force            0.000009     0.000300     YES
 Maximum Displacement     0.000011     0.001800     YES
 RMS     Displacement     0.000007     0.001200     YES
 Predicted change in Energy=-1.368904D-10
 Optimization completed.
    -- Stationary point found.
                           ----------------------------
                           !   Optimized Parameters   !
                           ! (Angstroms and Degrees)  !
 --------------------------                            --------------------------
 ! Name  Definition              Value          Derivative Info.                !
 --------------------------------------------------------------------------------
 ! R1    R(1,2)                  1.0525         -DE/DX =    0.0                 !
 ! R2    R(2,3)                  1.1528         -DE/DX =    0.0                 !
 ! A1    L(1,2,3,-1,-1)        180.0            -DE/DX =    0.0                 !
 ! A2    L(1,2,3,-2,-2)        180.0            -DE/DX =    0.0                 !
 --------------------------------------------------------------------------------
 GradGradGradGradGradGradGradGradGradGradGradGradGradGradGradGradGradGrad

 1|1|UNPC-DESKTOP-KC5UJLK|Freq|RPM6|ZDO|C1H1N1|23122|18-Mar-2022|0||#N 
 Geom=AllCheck Guess=TCheck SCRF=Check GenChk RPM6/ZDO Freq||opt freq(G
 C)||0,1|H,0.,0.,0.0140599532|C,0.,0.,1.0665786505|N,0.,0.,2.2193613964
 ||Version=IA32W-G09RevD.01|State=1-SG|HF=0.0529665|RMSD=2.392e-010|RMS
 F=8.393e-006|ZeroPoint=0.0159739|Thermal=0.018416|Dipole=0.,0.,-1.0408
 553|DipoleDeriv=0.2803955,0.,0.,0.,0.2803955,0.,0.,0.,0.4119449,-0.058
 6057,0.,0.,0.,-0.0586057,0.,0.,0.,-0.0555566,-0.2217898,0.,0.,0.,-0.22
 17898,0.,0.,0.,-0.3563879|Polar=3.4218249,0.,3.4218249,0.,0.,22.507719
 9|HyperPolar=0.,0.,0.,0.,-16.4643185,0.,-16.4643185,0.,0.,-7.852661|PG
 =C*V [C*(H1C1N1)]|NImag=0||0.02645578,0.,0.02645578,0.,0.,0.27344584,-
 0.05061151,0.,0.,0.09681340,0.,-0.05061151,0.,0.,0.09681340,0.,0.,-0.2
 2967186,0.,0.,1.50814822,0.02415573,0.,0.,-0.04620189,0.,0.,0.02204616
 ,0.,0.02415573,0.,0.,-0.04620189,0.,0.,0.02204616,0.,0.,-0.04377403,0.
 ,0.,-1.27847630,0.,0.,1.32225032||0.,0.,0.00000208,0.,0.,0.00001667,0.
 ,0.,-0.00001875|||@


 ALL SCIENCE IS EITHER PHYSICS, OR STAMP COLLECTING.
   --ERNEST RUTHERFORD, 1871-1937.
 Job cpu time:       0 days  0 hours  0 minutes  5.0 seconds.
 File lengths (MBytes):  RWF=      5 Int=      0 D2E=      0 Chk=      2 Scr=      1
 Normal termination of Gaussian 09 at Fri Mar 18 11:51:08 2022.
