 Entering Link 1 = C:\G09W\l1.exe PID=     10936.
  
 Copyright (c) 1988,1990,1992,1993,1995,1998,2003,2009,2013,
            Gaussian, Inc.  All Rights Reserved.
  
 This is part of the Gaussian(R) 09 program.  It is based on
 the Gaussian(R) 03 system (copyright 2003, Gaussian, Inc.),
 the Gaussian(R) 98 system (copyright 1998, Gaussian, Inc.),
 the Gaussian(R) 94 system (copyright 1995, Gaussian, Inc.),
 the Gaussian 92(TM) system (copyright 1992, Gaussian, Inc.),
 the Gaussian 90(TM) system (copyright 1990, Gaussian, Inc.),
 the Gaussian 88(TM) system (copyright 1988, Gaussian, Inc.),
 the Gaussian 86(TM) system (copyright 1986, Carnegie Mellon
 University), and the Gaussian 82(TM) system (copyright 1983,
 Carnegie Mellon University). Gaussian is a federally registered
 trademark of Gaussian, Inc.
  
 This software contains proprietary and confidential information,
 including trade secrets, belonging to Gaussian, Inc.
  
 This software is provided under written license and may be
 used, copied, transmitted, or stored only in accord with that
 written license.
  
 The following legend is applicable only to US Government
 contracts under FAR:
  
                    RESTRICTED RIGHTS LEGEND
  
 Use, reproduction and disclosure by the US Government is
 subject to restrictions as set forth in subparagraphs (a)
 and (c) of the Commercial Computer Software - Restricted
 Rights clause in FAR 52.227-19.
  
 Gaussian, Inc.
 340 Quinnipiac St., Bldg. 40, Wallingford CT 06492
  
  
 ---------------------------------------------------------------
 Warning -- This program may not be used in any manner that
 competes with the business of Gaussian, Inc. or will provide
 assistance to any competitor of Gaussian, Inc.  The licensee
 of this program is prohibited from giving any competitor of
 Gaussian, Inc. access to this program.  By using this program,
 the user acknowledges that Gaussian, Inc. is engaged in the
 business of creating and licensing software in the field of
 computational chemistry and represents and warrants to the
 licensee that it is not a competitor of Gaussian, Inc. and that
 it will not use this program in any manner prohibited above.
 ---------------------------------------------------------------
  

 Cite this work as:
 Gaussian 09, Revision D.01,
 M. J. Frisch, G. W. Trucks, H. B. Schlegel, G. E. Scuseria, 
 M. A. Robb, J. R. Cheeseman, G. Scalmani, V. Barone, B. Mennucci, 
 G. A. Petersson, H. Nakatsuji, M. Caricato, X. Li, H. P. Hratchian, 
 A. F. Izmaylov, J. Bloino, G. Zheng, J. L. Sonnenberg, M. Hada, 
 M. Ehara, K. Toyota, R. Fukuda, J. Hasegawa, M. Ishida, T. Nakajima, 
 Y. Honda, O. Kitao, H. Nakai, T. Vreven, J. A. Montgomery, Jr., 
 J. E. Peralta, F. Ogliaro, M. Bearpark, J. J. Heyd, E. Brothers, 
 K. N. Kudin, V. N. Staroverov, T. Keith, R. Kobayashi, J. Normand, 
 K. Raghavachari, A. Rendell, J. C. Burant, S. S. Iyengar, J. Tomasi, 
 M. Cossi, N. Rega, J. M. Millam, M. Klene, J. E. Knox, J. B. Cross, 
 V. Bakken, C. Adamo, J. Jaramillo, R. Gomperts, R. E. Stratmann, 
 O. Yazyev, A. J. Austin, R. Cammi, C. Pomelli, J. W. Ochterski, 
 R. L. Martin, K. Morokuma, V. G. Zakrzewski, G. A. Voth, 
 P. Salvador, J. J. Dannenberg, S. Dapprich, A. D. Daniels, 
 O. Farkas, J. B. Foresman, J. V. Ortiz, J. Cioslowski, 
 and D. J. Fox, Gaussian, Inc., Wallingford CT, 2013.
 
 ******************************************
 Gaussian 09:  IA32W-G09RevD.01 24-Apr-2013
                12-Feb-2022 
 ******************************************
 %chk=D:\mindmap\gaussian\calculate\opt_freq\ch3cocl\ch3cocl.chk
 %nprocshared=4
 Will use up to    4 processors via shared memory.
 %mem=1GB
 --------------------------------------------------------------------
 # opt=vtight freq apfd/6-311+g(2d,p) geom=connectivity int=ultrafine
 --------------------------------------------------------------------
 1/7=1,14=-1,18=20,19=15,26=4,38=1,57=2/1,3;
 2/9=110,12=2,17=6,18=5,40=1/2;
 3/5=4,6=6,7=112,11=2,16=1,25=1,30=1,71=1,74=-44,75=-5/1,2,3;
 4//1;
 5/5=2,38=5/2;
 6/7=2,8=2,9=2,10=2,28=1/1;
 7//1,2,3,16;
 1/7=1,14=-1,18=20,19=15,26=4/3(2);
 2/9=110/2;
 99//99;
 2/9=110/2;
 3/5=4,6=6,7=112,11=2,16=1,25=1,30=1,71=1,74=-44,75=-5/1,2,3;
 4/5=5,16=3,69=1/1;
 5/5=2,38=5/2;
 7//1,2,3,16;
 1/7=1,14=-1,18=20,19=15,26=4/3(-5);
 2/9=110/2;
 6/7=2,8=2,9=2,10=2,19=2,28=1/1;
 99/9=1/99;
 ------------
 opt freq(GC)
 ------------
 Symbolic Z-matrix:
 Charge =  0 Multiplicity = 1
 C                     0.19886   0.40143   0. 
 Cl                   -0.18661  -1.31584   0. 
 C                    -0.93586   1.44258   0. 
 H                    -1.53859   1.31342  -0.87429 
 H                    -1.53859   1.31342   0.87429 
 H                    -0.51664   2.42704   0. 
 O                     1.39852   0.78142   0. 
 

 GradGradGradGradGradGradGradGradGradGradGradGradGradGradGradGradGradGrad
 Berny optimization.
 Initialization pass.
                           ----------------------------
                           !    Initial Parameters    !
                           ! (Angstroms and Degrees)  !
 --------------------------                            --------------------------
 ! Name  Definition              Value          Derivative Info.                !
 --------------------------------------------------------------------------------
 ! R1    R(1,2)                  1.76           estimate D2E/DX2                !
 ! R2    R(1,3)                  1.54           estimate D2E/DX2                !
 ! R3    R(1,7)                  1.2584         estimate D2E/DX2                !
 ! R4    R(3,4)                  1.0697         estimate D2E/DX2                !
 ! R5    R(3,5)                  1.0697         estimate D2E/DX2                !
 ! R6    R(3,6)                  1.07           estimate D2E/DX2                !
 ! A1    A(2,1,3)              119.8865         estimate D2E/DX2                !
 ! A2    A(2,1,7)              120.2269         estimate D2E/DX2                !
 ! A3    A(3,1,7)              119.8865         estimate D2E/DX2                !
 ! A4    A(1,3,4)              109.4826         estimate D2E/DX2                !
 ! A5    A(1,3,5)              109.4826         estimate D2E/DX2                !
 ! A6    A(1,3,6)              109.4712         estimate D2E/DX2                !
 ! A7    A(4,3,5)              109.6294         estimate D2E/DX2                !
 ! A8    A(4,3,6)              109.3807         estimate D2E/DX2                !
 ! A9    A(5,3,6)              109.3807         estimate D2E/DX2                !
 ! D1    D(2,1,3,4)            -60.1039         estimate D2E/DX2                !
 ! D2    D(2,1,3,5)             60.1039         estimate D2E/DX2                !
 ! D3    D(2,1,3,6)            180.0            estimate D2E/DX2                !
 ! D4    D(7,1,3,4)            119.8961         estimate D2E/DX2                !
 ! D5    D(7,1,3,5)           -119.8961         estimate D2E/DX2                !
 ! D6    D(7,1,3,6)              0.0            estimate D2E/DX2                !
 --------------------------------------------------------------------------------
 Trust Radius=3.00D-01 FncErr=1.00D-07 GrdErr=1.00D-06
 Number of steps in this run=     31 maximum allowed number of steps=    100.
 GradGradGradGradGradGradGradGradGradGradGradGradGradGradGradGradGradGrad

                          Input orientation:                          
 ---------------------------------------------------------------------
 Center     Atomic      Atomic             Coordinates (Angstroms)
 Number     Number       Type             X           Y           Z
 ---------------------------------------------------------------------
      1          6           0        0.198860    0.401428    0.000000
      2         17           0       -0.186606   -1.315842    0.000000
      3          6           0       -0.935863    1.442583    0.000000
      4          1           0       -1.538587    1.313417   -0.874291
      5          1           0       -1.538587    1.313417    0.874291
      6          1           0       -0.516638    2.427038    0.000000
      7          8           0        1.398516    0.781423    0.000000
 ---------------------------------------------------------------------
                    Distance matrix (angstroms):
                    1          2          3          4          5
     1  C    0.000000
     2  Cl   1.760000   0.000000
     3  C    1.540000   2.858373   0.000000
     4  H    2.148216   3.083058   1.069741   0.000000
     5  H    2.148216   3.083058   1.069741   1.748583   0.000000
     6  H    2.148263   3.757402   1.070000   1.746114   1.746114
     7  O    1.258400   2.628903   2.426202   3.110301   3.110301
                    6          7
     6  H    0.000000
     7  O    2.525046   0.000000
 Stoichiometry    C2H3ClO
 Framework group  CS[SG(C2HClO),X(H2)]
 Deg. of freedom    10
 Full point group                 CS      NOp   2
 Largest Abelian subgroup         CS      NOp   2
 Largest concise Abelian subgroup CS      NOp   2
                         Standard orientation:                         
 ---------------------------------------------------------------------
 Center     Atomic      Atomic             Coordinates (Angstroms)
 Number     Number       Type             X           Y           Z
 ---------------------------------------------------------------------
      1          6           0        0.000000    0.447984    0.000000
      2         17           0       -0.416889   -1.261930    0.000000
      3          6           0        1.478967    0.877236    0.000000
      4          1           0        1.961717    0.493944    0.874291
      5          1           0        1.961717    0.493944   -0.874291
      6          1           0        1.540308    1.945476    0.000000
      7          8           0       -0.906303    1.321016    0.000000
 ---------------------------------------------------------------------
 Rotational constants (GHZ):     10.2402702      4.6692743      3.2709415
 Standard basis: 6-311+G(2d,p) (5D, 7F)
 There are   101 symmetry adapted cartesian basis functions of A'  symmetry.
 There are    41 symmetry adapted cartesian basis functions of A"  symmetry.
 There are    93 symmetry adapted basis functions of A'  symmetry.
 There are    41 symmetry adapted basis functions of A"  symmetry.
   134 basis functions,   209 primitive gaussians,   142 cartesian basis functions
    20 alpha electrons       20 beta electrons
       nuclear repulsion energy       146.8267701325 Hartrees.
 NAtoms=    7 NActive=    7 NUniq=    6 SFac= 1.36D+00 NAtFMM=   60 NAOKFM=F Big=F
 Integral buffers will be    262144 words long.
 Raffenetti 2 integral format.
 Two-electron integral symmetry is turned on.
 R6APFD:  NTU= -4 IXU= 1 FactS= 1.050
 Nuclear repulsion after empirical dispersion term =      146.8241838315 Hartrees.
 One-electron integrals computed using PRISM.
 NBasis=   134 RedAO= T EigKep=  2.28D-04  NBF=    93    41
 NBsUse=   134 1.00D-06 EigRej= -1.00D+00 NBFU=    93    41
 ExpMin= 4.38D-02 ExpMax= 1.06D+05 ExpMxC= 3.62D+03 IAcc=3 IRadAn=         5 AccDes= 0.00D+00
 Harris functional with IExCor= 3731 and IRadAn=       5 diagonalized for initial guess.
 HarFok:  IExCor= 3731 AccDes= 0.00D+00 IRadAn=         5 IDoV= 1 UseB2=F ITyADJ=14
 ICtDFT=  3500011 ScaDFX=  1.000000  1.000000  1.000000  1.000000
 FoFCou: FMM=F IPFlag=           0 FMFlag=      100000 FMFlg1=           0
         NFxFlg=           0 DoJE=T BraDBF=F KetDBF=T FulRan=T
         wScrn=  0.000000 ICntrl=     500 IOpCl=  0 I1Cent=   200000004 NGrid=           0
         NMat0=    1 NMatS0=      1 NMatT0=    0 NMatD0=    1 NMtDS0=    0 NMtDT0=    0
 Petite list used in FoFCou.
 Initial guess orbital symmetries:
       Occupied  (A') (A') (A') (A') (A') (A') (A') (A") (A') (A')
                 (A') (A') (A") (A') (A') (A') (A") (A') (A") (A')
       Virtual   (A") (A') (A') (A') (A") (A') (A') (A') (A") (A')
                 (A") (A') (A') (A") (A') (A') (A') (A') (A') (A")
                 (A') (A') (A') (A") (A') (A') (A') (A") (A") (A')
                 (A") (A') (A") (A') (A') (A") (A') (A') (A") (A')
                 (A') (A') (A') (A") (A') (A') (A") (A') (A") (A')
                 (A") (A') (A') (A') (A') (A") (A') (A") (A') (A')
                 (A") (A') (A') (A") (A') (A") (A') (A') (A") (A')
                 (A") (A') (A") (A') (A') (A') (A") (A') (A") (A')
                 (A') (A') (A") (A") (A') (A') (A") (A') (A') (A')
                 (A") (A") (A') (A') (A') (A") (A') (A') (A") (A')
                 (A') (A") (A') (A") (A') (A') (A') (A') (A') (A")
                 (A') (A') (A') (A')
 The electronic state of the initial guess is 1-A'.
 Keep R1 ints in memory in symmetry-blocked form, NReq=61962477.
 Requested convergence on RMS density matrix=1.00D-08 within 128 cycles.
 Requested convergence on MAX density matrix=1.00D-06.
 Requested convergence on             energy=1.00D-06.
 No special actions if energy rises.
 SCF Done:  E(RAPFD) =  -613.269883356     A.U. after   12 cycles
            NFock= 12  Conv=0.47D-08     -V/T= 2.0029

 **********************************************************************

            Population analysis using the SCF density.

 **********************************************************************

 Orbital symmetries:
       Occupied  (A') (A') (A') (A') (A') (A') (A") (A') (A') (A')
                 (A') (A') (A') (A") (A') (A') (A") (A') (A") (A')
       Virtual   (A") (A') (A') (A') (A") (A') (A') (A') (A") (A')
                 (A") (A') (A') (A") (A') (A') (A') (A') (A') (A")
                 (A') (A') (A') (A") (A') (A') (A") (A") (A') (A")
                 (A') (A') (A') (A") (A') (A") (A') (A") (A') (A')
                 (A') (A') (A') (A") (A') (A") (A') (A') (A") (A')
                 (A") (A') (A') (A') (A') (A') (A") (A') (A") (A')
                 (A") (A') (A') (A") (A') (A") (A') (A") (A') (A")
                 (A') (A') (A") (A') (A') (A') (A") (A') (A") (A')
                 (A') (A') (A") (A') (A") (A') (A") (A') (A") (A')
                 (A') (A") (A') (A') (A') (A") (A') (A') (A") (A')
                 (A') (A") (A') (A") (A') (A') (A') (A') (A') (A")
                 (A') (A') (A') (A')
 The electronic state is 1-A'.
 Alpha  occ. eigenvalues -- -101.67451 -19.19598 -10.36638 -10.22924  -9.53576
 Alpha  occ. eigenvalues --   -7.28201  -7.27381  -7.27230  -1.07769  -0.88845
 Alpha  occ. eigenvalues --   -0.78375  -0.58990  -0.50333  -0.48570  -0.47951
 Alpha  occ. eigenvalues --   -0.43446  -0.40951  -0.34856  -0.34555  -0.30433
 Alpha virt. eigenvalues --   -0.06077  -0.00162   0.01617   0.03894   0.05282
 Alpha virt. eigenvalues --    0.05469   0.08277   0.08893   0.09218   0.09851
 Alpha virt. eigenvalues --    0.11312   0.11950   0.13213   0.15339   0.16019
 Alpha virt. eigenvalues --    0.20827   0.22186   0.23046   0.25228   0.27542
 Alpha virt. eigenvalues --    0.29461   0.31684   0.35703   0.38346   0.39239
 Alpha virt. eigenvalues --    0.42232   0.42719   0.44106   0.46047   0.47047
 Alpha virt. eigenvalues --    0.47237   0.48199   0.53368   0.53890   0.56790
 Alpha virt. eigenvalues --    0.59835   0.63320   0.68133   0.68439   0.72506
 Alpha virt. eigenvalues --    0.73054   0.79354   0.83259   0.88573   0.89819
 Alpha virt. eigenvalues --    1.01968   1.03496   1.05732   1.10293   1.12825
 Alpha virt. eigenvalues --    1.15965   1.18209   1.20277   1.24944   1.33954
 Alpha virt. eigenvalues --    1.40624   1.43336   1.59501   1.60143   1.73868
 Alpha virt. eigenvalues --    1.74322   1.81536   1.86612   1.90557   2.14480
 Alpha virt. eigenvalues --    2.19202   2.21018   2.28669   2.32550   2.33598
 Alpha virt. eigenvalues --    2.36054   2.38127   2.38811   2.40999   2.45765
 Alpha virt. eigenvalues --    2.47069   2.49245   2.62694   2.62935   2.63678
 Alpha virt. eigenvalues --    2.72256   2.80090   2.80287   3.07218   3.12505
 Alpha virt. eigenvalues --    3.21188   3.27596   3.28416   3.36446   3.36521
 Alpha virt. eigenvalues --    3.40689   3.41576   3.53306   3.68968   3.76404
 Alpha virt. eigenvalues --    4.24380   4.24434   4.30361   5.04679   5.18157
 Alpha virt. eigenvalues --    5.82653   6.78059   6.81768   6.98991   7.14069
 Alpha virt. eigenvalues --    7.20032   9.82814  23.79464  24.06001  25.87509
 Alpha virt. eigenvalues --   26.04629  27.05837  50.00655 215.94998
          Condensed to atoms (all electrons):
               1          2          3          4          5          6
     1  C    4.899409   0.253536   0.287537  -0.018778  -0.018778  -0.062251
     2  Cl   0.253536  16.754180  -0.047603  -0.000827  -0.000827   0.002184
     3  C    0.287537  -0.047603   5.197765   0.384297   0.384297   0.444890
     4  H   -0.018778  -0.000827   0.384297   0.508932  -0.023903  -0.023311
     5  H   -0.018778  -0.000827   0.384297  -0.023903   0.508932  -0.023311
     6  H   -0.062251   0.002184   0.444890  -0.023311  -0.023311   0.479406
     7  O    0.424148  -0.080254  -0.100485   0.001390   0.001390   0.002752
               7
     1  C    0.424148
     2  Cl  -0.080254
     3  C   -0.100485
     4  H    0.001390
     5  H    0.001390
     6  H    0.002752
     7  O    8.079188
 Mulliken charges:
               1
     1  C    0.235177
     2  Cl   0.119610
     3  C   -0.550698
     4  H    0.172200
     5  H    0.172200
     6  H    0.179640
     7  O   -0.328129
 Sum of Mulliken charges =   0.00000
 Mulliken charges with hydrogens summed into heavy atoms:
               1
     1  C    0.235177
     2  Cl   0.119610
     3  C   -0.026658
     7  O   -0.328129
 Electronic spatial extent (au):  <R**2>=            372.8046
 Charge=              0.0000 electrons
 Dipole moment (field-independent basis, Debye):
    X=              2.8932    Y=             -0.4156    Z=              0.0000  Tot=              2.9229
 Quadrupole moment (field-independent basis, Debye-Ang):
   XX=            -29.9487   YY=            -31.7961   ZZ=            -29.6191
   XY=              3.7511   XZ=              0.0000   YZ=              0.0000
 Traceless Quadrupole moment (field-independent basis, Debye-Ang):
   XX=              0.5059   YY=             -1.3415   ZZ=              0.8355
   XY=              3.7511   XZ=              0.0000   YZ=              0.0000
 Octapole moment (field-independent basis, Debye-Ang**2):
  XXX=              2.4068  YYY=             -5.3563  ZZZ=              0.0000  XYY=              2.2008
  XXY=             -0.2595  XXZ=              0.0000  XZZ=              0.2604  YZZ=              0.1947
  YYZ=              0.0000  XYZ=              0.0000
 Hexadecapole moment (field-independent basis, Debye-Ang**3):
 XXXX=           -180.6035 YYYY=           -246.6292 ZZZZ=            -36.8063 XXXY=            -25.4737
 XXXZ=              0.0000 YYYX=            -17.0265 YYYZ=              0.0000 ZZZX=              0.0000
 ZZZY=              0.0000 XXYY=            -72.3068 XXZZ=            -33.5493 YYZZ=            -49.9382
 XXYZ=              0.0000 YYXZ=              0.0000 ZZXY=            -10.0601
 N-N= 1.468241838315D+02 E-N=-1.745989731347D+03  KE= 6.115213739703D+02
 Symmetry A'   KE= 5.600639969827D+02
 Symmetry A"   KE= 5.145737698764D+01
 R6APFD:  NTU= -4 IXU= 1 FactS= 1.050
 Calling FoFJK, ICntrl=      2127 FMM=F ISym2X=1 I1Cent= 0 IOpClX= 0 NMat=1 NMatS=1 NMatT=0.
 ***** Axes restored to original set *****
 -------------------------------------------------------------------
 Center     Atomic                   Forces (Hartrees/Bohr)
 Number     Number              X              Y              Z
 -------------------------------------------------------------------
      1        6           0.087370888    0.058355560    0.000000000
      2       17          -0.004640542    0.004711293    0.000000000
      3        6           0.018251083   -0.028136884    0.000000000
      4        1          -0.010977165   -0.003762817   -0.011228967
      5        1          -0.010977165   -0.003762817    0.011228967
      6        1           0.009456863    0.009310031    0.000000000
      7        8          -0.088483963   -0.036714366    0.000000000
 -------------------------------------------------------------------
 Cartesian Forces:  Max     0.088483963 RMS     0.032427589

 GradGradGradGradGradGradGradGradGradGradGradGradGradGradGradGradGradGrad
 Berny optimization.
 FormGI is forming the generalized inverse of G from B-inverse, IUseBI=4.
 Internal  Forces:  Max     0.095439888 RMS     0.022957476
 Search for a local minimum.
 Step number   1 out of a maximum of   31
 All quantities printed in internal units (Hartrees-Bohrs-Radians)
 Mixed Optimization -- RFO/linear search
 Second derivative matrix not updated -- first step.
 ITU=  0
     Eigenvalues ---    0.00237   0.00237   0.07234   0.07248   0.16000
     Eigenvalues ---    0.16000   0.16000   0.25000   0.25000   0.28519
     Eigenvalues ---    0.29539   0.37230   0.37263   0.37263   0.80209
 RFO step:  Lambda=-1.76232167D-02 EMin= 2.36824361D-03
 Linear search not attempted -- first point.
 Iteration  1 RMS(Cart)=  0.04949261 RMS(Int)=  0.00115034
 Iteration  2 RMS(Cart)=  0.00151444 RMS(Int)=  0.00001464
 Iteration  3 RMS(Cart)=  0.00000099 RMS(Int)=  0.00001460
 ClnCor:  largest displacement from symmetrization is 7.08D-11 for atom     6.
 Variable       Old X    -DE/DX   Delta X   Delta X   Delta X     New X
                                 (Linear)    (Quad)   (Total)
    R1        3.32592  -0.00358   0.00000  -0.01144  -0.01144   3.31448
    R2        2.91018  -0.02206   0.00000  -0.07284  -0.07284   2.83734
    R3        2.37803  -0.09544   0.00000  -0.11643  -0.11643   2.26160
    R4        2.02152   0.01582   0.00000   0.04053   0.04053   2.06205
    R5        2.02152   0.01582   0.00000   0.04053   0.04053   2.06205
    R6        2.02201   0.01227   0.00000   0.03147   0.03147   2.05348
    A1        2.09241  -0.01889   0.00000  -0.07059  -0.07059   2.02182
    A2        2.09836  -0.00040   0.00000  -0.00150  -0.00150   2.09686
    A3        2.09241   0.01929   0.00000   0.07209   0.07209   2.16450
    A4        1.91083   0.00112   0.00000   0.00500   0.00502   1.91585
    A5        1.91083   0.00112   0.00000   0.00500   0.00502   1.91585
    A6        1.91063  -0.00679   0.00000  -0.03558  -0.03555   1.87508
    A7        1.91339  -0.00233   0.00000  -0.01837  -0.01837   1.89503
    A8        1.90905   0.00343   0.00000   0.02197   0.02200   1.93105
    A9        1.90905   0.00343   0.00000   0.02197   0.02200   1.93105
    D1       -1.04901   0.00074   0.00000   0.00819   0.00818  -1.04083
    D2        1.04901  -0.00074   0.00000  -0.00819  -0.00818   1.04083
    D3        3.14159   0.00000   0.00000   0.00000   0.00000   3.14159
    D4        2.09258   0.00074   0.00000   0.00819   0.00818   2.10076
    D5       -2.09258  -0.00074   0.00000  -0.00819  -0.00818  -2.10076
    D6        0.00000   0.00000   0.00000   0.00000   0.00000   0.00000
         Item               Value     Threshold  Converged?
 Maximum Force            0.095440     0.000002     NO 
 RMS     Force            0.022957     0.000001     NO 
 Maximum Displacement     0.130019     0.000006     NO 
 RMS     Displacement     0.049930     0.000004     NO 
 Predicted change in Energy=-9.131741D-03
 GradGradGradGradGradGradGradGradGradGradGradGradGradGradGradGradGradGrad

                          Input orientation:                          
 ---------------------------------------------------------------------
 Center     Atomic      Atomic             Coordinates (Angstroms)
 Number     Number       Type             X           Y           Z
 ---------------------------------------------------------------------
      1          6           0        0.220633    0.449292    0.000000
      2         17           0       -0.225223   -1.247039    0.000000
      3          6           0       -0.919921    1.425770    0.000000
      4          1           0       -1.537884    1.271495   -0.886009
      5          1           0       -1.537884    1.271495    0.886009
      6          1           0       -0.492993    2.425044    0.000000
      7          8           0        1.374368    0.767407    0.000000
 ---------------------------------------------------------------------
                    Distance matrix (angstroms):
                    1          2          3          4          5
     1  C    0.000000
     2  Cl   1.753947   0.000000
     3  C    1.501457   2.761615   0.000000
     4  H    2.133872   2.975081   1.091188   0.000000
     5  H    2.133872   2.975081   1.091188   1.772017   0.000000
     6  H    2.100680   3.681833   1.086653   1.790945   1.790945
     7  O    1.196787   2.572291   2.386881   3.085502   3.085502
                    6          7
     6  H    0.000000
     7  O    2.496957   0.000000
 Stoichiometry    C2H3ClO
 Framework group  CS[SG(C2HClO),X(H2)]
 Deg. of freedom    10
 Full point group                 CS      NOp   2
 Largest Abelian subgroup         CS      NOp   2
 Largest concise Abelian subgroup CS      NOp   2
                         Standard orientation:                         
 ---------------------------------------------------------------------
 Center     Atomic      Atomic             Coordinates (Angstroms)
 Number     Number       Type             X           Y           Z
 ---------------------------------------------------------------------
      1          6           0        0.000000    0.481862    0.000000
      2         17           0       -0.440435   -1.215885    0.000000
      3          6           0        1.472357    0.776035    0.000000
      4          1           0        1.935996    0.339322    0.886009
      5          1           0        1.935996    0.339322   -0.886009
      6          1           0        1.588498    1.856464    0.000000
      7          8           0       -0.850905    1.323445    0.000000
 ---------------------------------------------------------------------
 Rotational constants (GHZ):     10.4612811      4.9474520      3.4310854
 Standard basis: 6-311+G(2d,p) (5D, 7F)
 There are   101 symmetry adapted cartesian basis functions of A'  symmetry.
 There are    41 symmetry adapted cartesian basis functions of A"  symmetry.
 There are    93 symmetry adapted basis functions of A'  symmetry.
 There are    41 symmetry adapted basis functions of A"  symmetry.
   134 basis functions,   209 primitive gaussians,   142 cartesian basis functions
    20 alpha electrons       20 beta electrons
       nuclear repulsion energy       149.8995996841 Hartrees.
 NAtoms=    7 NActive=    7 NUniq=    6 SFac= 1.36D+00 NAtFMM=   60 NAOKFM=F Big=F
 Integral buffers will be    262144 words long.
 Raffenetti 2 integral format.
 Two-electron integral symmetry is turned on.
 R6APFD:  NTU= -4 IXU= 1 FactS= 1.050
 Nuclear repulsion after empirical dispersion term =      149.8974856622 Hartrees.
 One-electron integrals computed using PRISM.
 NBasis=   134 RedAO= T EigKep=  2.00D-04  NBF=    93    41
 NBsUse=   134 1.00D-06 EigRej= -1.00D+00 NBFU=    93    41
 Initial guess from the checkpoint file:  "D:\mindmap\gaussian\calculate\opt_freq\ch3cocl\ch3cocl.chk"
 B after Tr=     0.000000    0.000000    0.000000
         Rot=    0.999819    0.000000    0.000000    0.019000 Ang=   2.18 deg.
 Initial guess orbital symmetries:
       Occupied  (A') (A') (A') (A') (A') (A') (A") (A') (A') (A')
                 (A') (A') (A') (A") (A') (A') (A") (A') (A") (A')
       Virtual   (A') (A') (A') (A') (A') (A') (A') (A') (A') (A')
                 (A') (A') (A') (A') (A') (A') (A') (A') (A') (A')
                 (A') (A') (A') (A') (A') (A') (A') (A') (A') (A')
                 (A') (A') (A') (A') (A') (A') (A') (A') (A') (A')
                 (A') (A') (A') (A') (A') (A') (A') (A') (A') (A')
                 (A') (A') (A') (A') (A') (A') (A') (A') (A') (A')
                 (A') (A') (A') (A') (A') (A') (A') (A') (A') (A')
                 (A') (A') (A') (A') (A') (A') (A') (A") (A") (A")
                 (A") (A") (A") (A") (A") (A") (A") (A") (A") (A")
                 (A") (A") (A") (A") (A") (A") (A") (A") (A") (A")
                 (A") (A") (A") (A") (A") (A") (A") (A") (A") (A")
                 (A") (A") (A") (A")
 ExpMin= 4.38D-02 ExpMax= 1.06D+05 ExpMxC= 3.62D+03 IAcc=2 IRadAn=         4 AccDes= 0.00D+00
 Harris functional with IExCor= 3731 and IRadAn=       4 diagonalized for initial guess.
 HarFok:  IExCor= 3731 AccDes= 0.00D+00 IRadAn=         4 IDoV= 1 UseB2=F ITyADJ=14
 ICtDFT=  3500011 ScaDFX=  1.000000  1.000000  1.000000  1.000000
 FoFCou: FMM=F IPFlag=           0 FMFlag=      100000 FMFlg1=           0
         NFxFlg=           0 DoJE=T BraDBF=F KetDBF=T FulRan=T
         wScrn=  0.000000 ICntrl=     500 IOpCl=  0 I1Cent=   200000004 NGrid=           0
         NMat0=    1 NMatS0=      1 NMatT0=    0 NMatD0=    1 NMtDS0=    0 NMtDT0=    0
 Petite list used in FoFCou.
 Keep R1 ints in memory in symmetry-blocked form, NReq=61962477.
 Requested convergence on RMS density matrix=1.00D-08 within 128 cycles.
 Requested convergence on MAX density matrix=1.00D-06.
 Requested convergence on             energy=1.00D-06.
 No special actions if energy rises.
 SCF Done:  E(RAPFD) =  -613.280555738     A.U. after   11 cycles
            NFock= 11  Conv=0.39D-08     -V/T= 2.0025
 R6APFD:  NTU= -4 IXU= 1 FactS= 1.050
 Calling FoFJK, ICntrl=      2127 FMM=F ISym2X=1 I1Cent= 0 IOpClX= 0 NMat=1 NMatS=1 NMatT=0.
 ***** Axes restored to original set *****
 -------------------------------------------------------------------
 Center     Atomic                   Forces (Hartrees/Bohr)
 Number     Number              X              Y              Z
 -------------------------------------------------------------------
      1        6           0.024361790    0.022789066    0.000000000
      2       17          -0.006715726   -0.012396848    0.000000000
      3        6           0.001762784   -0.005521493    0.000000000
      4        1          -0.001435576   -0.000180762    0.000320212
      5        1          -0.001435576   -0.000180762   -0.000320212
      6        1          -0.001036042    0.001868300    0.000000000
      7        8          -0.015501654   -0.006377503    0.000000000
 -------------------------------------------------------------------
 Cartesian Forces:  Max     0.024361790 RMS     0.008824062

 GradGradGradGradGradGradGradGradGradGradGradGradGradGradGradGradGradGrad
 Berny optimization.
 Using GEDIIS/GDIIS optimizer.
 FormGI is forming the generalized inverse of G from B-inverse, IUseBI=4.
 Internal  Forces:  Max     0.016638958 RMS     0.005394674
 Search for a local minimum.
 Step number   2 out of a maximum of   31
 All quantities printed in internal units (Hartrees-Bohrs-Radians)
 Mixed Optimization -- RFO/linear search
 Update second derivatives using D2CorX and points    1    2
 DE= -1.07D-02 DEPred=-9.13D-03 R= 1.17D+00
 TightC=F SS=  1.41D+00  RLast= 1.91D-01 DXNew= 5.0454D-01 5.7187D-01
 Trust test= 1.17D+00 RLast= 1.91D-01 DXMaxT set to 5.05D-01
 ITU=  1  0
 Use linear search instead of GDIIS.
     Eigenvalues ---    0.00237   0.00237   0.07210   0.07425   0.15953
     Eigenvalues ---    0.16000   0.16344   0.21456   0.25051   0.28083
     Eigenvalues ---    0.31342   0.37224   0.37263   0.38654   0.73249
 RFO step:  Lambda=-1.49831342D-03 EMin= 2.36824361D-03
 Quartic linear search produced a step of  0.17202.
 Iteration  1 RMS(Cart)=  0.02541712 RMS(Int)=  0.00047659
 Iteration  2 RMS(Cart)=  0.00068426 RMS(Int)=  0.00004528
 Iteration  3 RMS(Cart)=  0.00000018 RMS(Int)=  0.00004528
 ClnCor:  largest displacement from symmetrization is 6.66D-10 for atom     6.
 Variable       Old X    -DE/DX   Delta X   Delta X   Delta X     New X
                                 (Linear)    (Quad)   (Total)
    R1        3.31448   0.01370  -0.00197   0.05563   0.05366   3.36814
    R2        2.83734  -0.00098  -0.01253   0.00613  -0.00640   2.83094
    R3        2.26160  -0.01664  -0.02003  -0.01214  -0.03217   2.22943
    R4        2.06205   0.00058   0.00697  -0.00331   0.00366   2.06571
    R5        2.06205   0.00058   0.00697  -0.00331   0.00366   2.06571
    R6        2.05348   0.00131   0.00541   0.00013   0.00554   2.05902
    A1        2.02182  -0.00892  -0.01214  -0.03117  -0.04331   1.97851
    A2        2.09686   0.00217  -0.00026   0.01031   0.01005   2.10691
    A3        2.16450   0.00675   0.01240   0.02086   0.03326   2.19776
    A4        1.91585   0.00045   0.00086   0.00055   0.00135   1.91720
    A5        1.91585   0.00045   0.00086   0.00055   0.00135   1.91720
    A6        1.87508   0.00259  -0.00612   0.02877   0.02256   1.89764
    A7        1.89503  -0.00166  -0.00316  -0.01579  -0.01897   1.87606
    A8        1.93105  -0.00088   0.00378  -0.00683  -0.00314   1.92791
    A9        1.93105  -0.00088   0.00378  -0.00683  -0.00314   1.92791
    D1       -1.04083   0.00074   0.00141   0.00935   0.01079  -1.03004
    D2        1.04083  -0.00074  -0.00141  -0.00935  -0.01079   1.03004
    D3        3.14159   0.00000   0.00000   0.00000   0.00000   3.14159
    D4        2.10076   0.00074   0.00141   0.00935   0.01079   2.11155
    D5       -2.10076  -0.00074  -0.00141  -0.00935  -0.01079  -2.11155
    D6        0.00000   0.00000   0.00000   0.00000   0.00000   0.00000
         Item               Value     Threshold  Converged?
 Maximum Force            0.016639     0.000002     NO 
 RMS     Force            0.005395     0.000001     NO 
 Maximum Displacement     0.063854     0.000006     NO 
 RMS     Displacement     0.025731     0.000004     NO 
 Predicted change in Energy=-1.088954D-03
 GradGradGradGradGradGradGradGradGradGradGradGradGradGradGradGradGradGrad

                          Input orientation:                          
 ---------------------------------------------------------------------
 Center     Atomic      Atomic             Coordinates (Angstroms)
 Number     Number       Type             X           Y           Z
 ---------------------------------------------------------------------
      1          6           0        0.243613    0.467539    0.000000
      2         17           0       -0.259013   -1.242464    0.000000
      3          6           0       -0.908329    1.425264    0.000000
      4          1           0       -1.532096    1.255527   -0.881490
      5          1           0       -1.532096    1.255527    0.881490
      6          1           0       -0.517616    2.442387    0.000000
      7          8           0        1.386634    0.759683    0.000000
 ---------------------------------------------------------------------
                    Distance matrix (angstroms):
                    1          2          3          4          5
     1  C    0.000000
     2  Cl   1.782341   0.000000
     3  C    1.498068   2.745612   0.000000
     4  H    2.133329   2.939001   1.093124   0.000000
     5  H    2.133329   2.939001   1.093124   1.762981   0.000000
     6  H    2.116482   3.693914   1.089586   1.792995   1.792995
     7  O    1.179765   2.591668   2.389530   3.088992   3.088992
                    6          7
     6  H    0.000000
     7  O    2.541194   0.000000
 Stoichiometry    C2H3ClO
 Framework group  CS[SG(C2HClO),X(H2)]
 Deg. of freedom    10
 Full point group                 CS      NOp   2
 Largest Abelian subgroup         CS      NOp   2
 Largest concise Abelian subgroup CS      NOp   2
                         Standard orientation:                         
 ---------------------------------------------------------------------
 Center     Atomic      Atomic             Coordinates (Angstroms)
 Number     Number       Type             X           Y           Z
 ---------------------------------------------------------------------
      1          6           0        0.000000    0.510447    0.000000
      2         17           0       -0.460613   -1.211348    0.000000
      3          6           0        1.482061    0.728859    0.000000
      4          1           0        1.926397    0.259327    0.881490
      5          1           0        1.926397    0.259327   -0.881490
      6          1           0        1.677690    1.800739    0.000000
      7          8           0       -0.824054    1.354710    0.000000
 ---------------------------------------------------------------------
 Rotational constants (GHZ):     10.3678335      4.9397604      3.4165494
 Standard basis: 6-311+G(2d,p) (5D, 7F)
 There are   101 symmetry adapted cartesian basis functions of A'  symmetry.
 There are    41 symmetry adapted cartesian basis functions of A"  symmetry.
 There are    93 symmetry adapted basis functions of A'  symmetry.
 There are    41 symmetry adapted basis functions of A"  symmetry.
   134 basis functions,   209 primitive gaussians,   142 cartesian basis functions
    20 alpha electrons       20 beta electrons
       nuclear repulsion energy       149.6430050565 Hartrees.
 NAtoms=    7 NActive=    7 NUniq=    6 SFac= 1.36D+00 NAtFMM=   60 NAOKFM=F Big=F
 Integral buffers will be    262144 words long.
 Raffenetti 2 integral format.
 Two-electron integral symmetry is turned on.
 R6APFD:  NTU= -4 IXU= 1 FactS= 1.050
 Nuclear repulsion after empirical dispersion term =      149.6408614093 Hartrees.
 One-electron integrals computed using PRISM.
 NBasis=   134 RedAO= T EigKep=  2.02D-04  NBF=    93    41
 NBsUse=   134 1.00D-06 EigRej= -1.00D+00 NBFU=    93    41
 Initial guess from the checkpoint file:  "D:\mindmap\gaussian\calculate\opt_freq\ch3cocl\ch3cocl.chk"
 B after Tr=     0.000000    0.000000    0.000000
         Rot=    0.999925    0.000000    0.000000    0.012287 Ang=   1.41 deg.
 Initial guess orbital symmetries:
       Occupied  (A') (A') (A') (A') (A') (A') (A") (A') (A') (A')
                 (A') (A') (A') (A") (A') (A') (A") (A") (A') (A')
       Virtual   (A') (A') (A') (A') (A') (A') (A') (A') (A') (A')
                 (A') (A') (A') (A') (A') (A') (A') (A') (A') (A')
                 (A') (A') (A') (A') (A') (A') (A') (A') (A') (A')
                 (A') (A') (A') (A') (A') (A') (A') (A') (A') (A')
                 (A') (A') (A') (A') (A') (A') (A') (A') (A') (A')
                 (A') (A') (A') (A') (A') (A') (A') (A') (A') (A')
                 (A') (A') (A') (A') (A') (A') (A') (A') (A') (A')
                 (A') (A') (A') (A') (A') (A') (A') (A") (A") (A")
                 (A") (A") (A") (A") (A") (A") (A") (A") (A") (A")
                 (A") (A") (A") (A") (A") (A") (A") (A") (A") (A")
                 (A") (A") (A") (A") (A") (A") (A") (A") (A") (A")
                 (A") (A") (A") (A")
 ExpMin= 4.38D-02 ExpMax= 1.06D+05 ExpMxC= 3.62D+03 IAcc=2 IRadAn=         4 AccDes= 0.00D+00
 Harris functional with IExCor= 3731 and IRadAn=       4 diagonalized for initial guess.
 HarFok:  IExCor= 3731 AccDes= 0.00D+00 IRadAn=         4 IDoV= 1 UseB2=F ITyADJ=14
 ICtDFT=  3500011 ScaDFX=  1.000000  1.000000  1.000000  1.000000
 FoFCou: FMM=F IPFlag=           0 FMFlag=      100000 FMFlg1=           0
         NFxFlg=           0 DoJE=T BraDBF=F KetDBF=T FulRan=T
         wScrn=  0.000000 ICntrl=     500 IOpCl=  0 I1Cent=   200000004 NGrid=           0
         NMat0=    1 NMatS0=      1 NMatT0=    0 NMatD0=    1 NMtDS0=    0 NMtDT0=    0
 Petite list used in FoFCou.
 Keep R1 ints in memory in symmetry-blocked form, NReq=61962477.
 Requested convergence on RMS density matrix=1.00D-08 within 128 cycles.
 Requested convergence on MAX density matrix=1.00D-06.
 Requested convergence on             energy=1.00D-06.
 No special actions if energy rises.
 SCF Done:  E(RAPFD) =  -613.281850496     A.U. after   10 cycles
            NFock= 10  Conv=0.92D-08     -V/T= 2.0025
 R6APFD:  NTU= -4 IXU= 1 FactS= 1.050
 Calling FoFJK, ICntrl=      2127 FMM=F ISym2X=1 I1Cent= 0 IOpClX= 0 NMat=1 NMatS=1 NMatT=0.
 ***** Axes restored to original set *****
 -------------------------------------------------------------------
 Center     Atomic                   Forces (Hartrees/Bohr)
 Number     Number              X              Y              Z
 -------------------------------------------------------------------
      1        6          -0.001485402    0.009481531    0.000000000
      2       17          -0.003055039   -0.006973926    0.000000000
      3        6          -0.001301997   -0.001462230    0.000000000
      4        1           0.000322744   -0.000141170    0.000615428
      5        1           0.000322744   -0.000141170   -0.000615428
      6        1          -0.000499004   -0.000181050    0.000000000
      7        8           0.005695954   -0.000581985    0.000000000
 -------------------------------------------------------------------
 Cartesian Forces:  Max     0.009481531 RMS     0.002991879

 GradGradGradGradGradGradGradGradGradGradGradGradGradGradGradGradGradGrad
 Berny optimization.
 Using GEDIIS/GDIIS optimizer.
 FormGI is forming the generalized inverse of G from B-inverse, IUseBI=4.
 Internal  Forces:  Max     0.007552367 RMS     0.002365431
 Search for a local minimum.
 Step number   3 out of a maximum of   31
 All quantities printed in internal units (Hartrees-Bohrs-Radians)
 Mixed Optimization -- RFO/linear search
 Update second derivatives using D2CorX and points    1    2    3
 DE= -1.29D-03 DEPred=-1.09D-03 R= 1.19D+00
 TightC=F SS=  1.41D+00  RLast= 9.19D-02 DXNew= 8.4853D-01 2.7582D-01
 Trust test= 1.19D+00 RLast= 9.19D-02 DXMaxT set to 5.05D-01
 ITU=  1  1  0
 Use linear search instead of GDIIS.
     Eigenvalues ---    0.00237   0.00237   0.07125   0.07233   0.14224
     Eigenvalues ---    0.16000   0.16082   0.16757   0.25274   0.27608
     Eigenvalues ---    0.29952   0.37239   0.37263   0.38502   0.99998
 RFO step:  Lambda=-3.28298982D-04 EMin= 2.36824361D-03
 Quartic linear search produced a step of  0.36218.
 Iteration  1 RMS(Cart)=  0.01790888 RMS(Int)=  0.00017622
 Iteration  2 RMS(Cart)=  0.00027548 RMS(Int)=  0.00002173
 Iteration  3 RMS(Cart)=  0.00000003 RMS(Int)=  0.00002173
 ClnCor:  largest displacement from symmetrization is 1.18D-09 for atom     6.
 Variable       Old X    -DE/DX   Delta X   Delta X   Delta X     New X
                                 (Linear)    (Quad)   (Total)
    R1        3.36814   0.00755   0.01943   0.02062   0.04005   3.40819
    R2        2.83094  -0.00034  -0.00232  -0.00329  -0.00560   2.82533
    R3        2.22943   0.00537  -0.01165   0.00990  -0.00175   2.22768
    R4        2.06571  -0.00066   0.00133  -0.00123   0.00009   2.06580
    R5        2.06571  -0.00066   0.00133  -0.00123   0.00009   2.06580
    R6        2.05902  -0.00035   0.00201  -0.00099   0.00101   2.06003
    A1        1.97851  -0.00363  -0.01569  -0.01206  -0.02775   1.95076
    A2        2.10691  -0.00038   0.00364  -0.00431  -0.00067   2.10624
    A3        2.19776   0.00402   0.01205   0.01638   0.02842   2.22619
    A4        1.91720  -0.00031   0.00049  -0.00328  -0.00283   1.91437
    A5        1.91720  -0.00031   0.00049  -0.00328  -0.00283   1.91437
    A6        1.89764   0.00077   0.00817   0.00126   0.00938   1.90702
    A7        1.87606  -0.00006  -0.00687   0.00063  -0.00627   1.86980
    A8        1.92791  -0.00005  -0.00114   0.00228   0.00110   1.92901
    A9        1.92791  -0.00005  -0.00114   0.00228   0.00110   1.92901
    D1       -1.03004   0.00022   0.00391   0.00158   0.00550  -1.02455
    D2        1.03004  -0.00022  -0.00391  -0.00158  -0.00550   1.02455
    D3        3.14159   0.00000   0.00000   0.00000   0.00000   3.14159
    D4        2.11155   0.00022   0.00391   0.00158   0.00550   2.11705
    D5       -2.11155  -0.00022  -0.00391  -0.00158  -0.00550  -2.11705
    D6        0.00000   0.00000   0.00000   0.00000   0.00000   0.00000
         Item               Value     Threshold  Converged?
 Maximum Force            0.007552     0.000002     NO 
 RMS     Force            0.002365     0.000001     NO 
 Maximum Displacement     0.045565     0.000006     NO 
 RMS     Displacement     0.018049     0.000004     NO 
 Predicted change in Energy=-2.613457D-04
 GradGradGradGradGradGradGradGradGradGradGradGradGradGradGradGradGradGrad

                          Input orientation:                          
 ---------------------------------------------------------------------
 Center     Atomic      Atomic             Coordinates (Angstroms)
 Number     Number       Type             X           Y           Z
 ---------------------------------------------------------------------
      1          6           0        0.255219    0.482575    0.000000
      2         17           0       -0.283125   -1.238741    0.000000
      3          6           0       -0.904432    1.426260    0.000000
      4          1           0       -1.527548    1.243957   -0.879501
      5          1           0       -1.527548    1.243957    0.879501
      6          1           0       -0.533856    2.451461    0.000000
      7          8           0        1.402386    0.753995    0.000000
 ---------------------------------------------------------------------
                    Distance matrix (angstroms):
                    1          2          3          4          5
     1  C    0.000000
     2  Cl   1.803536   0.000000
     3  C    1.495102   2.736467   0.000000
     4  H    2.128727   2.913057   1.093174   0.000000
     5  H    2.128727   2.913057   1.093174   1.759001   0.000000
     6  H    2.121120   3.698710   1.090121   1.794160   1.794160
     7  O    1.178839   2.609970   2.402779   3.098079   3.098079
                    6          7
     6  H    0.000000
     7  O    2.574960   0.000000
 Stoichiometry    C2H3ClO
 Framework group  CS[SG(C2HClO),X(H2)]
 Deg. of freedom    10
 Full point group                 CS      NOp   2
 Largest Abelian subgroup         CS      NOp   2
 Largest concise Abelian subgroup CS      NOp   2
                         Standard orientation:                         
 ---------------------------------------------------------------------
 Center     Atomic      Atomic             Coordinates (Angstroms)
 Number     Number       Type             X           Y           Z
 ---------------------------------------------------------------------
      1          6           0        0.000000    0.529824    0.000000
      2         17           0       -0.461102   -1.213772    0.000000
      3          6           0        1.484093    0.710927    0.000000
      4          1           0        1.914393    0.224770    0.879501
      5          1           0        1.914393    0.224770   -0.879501
      6          1           0        1.716450    1.775998    0.000000
      7          8           0       -0.826383    1.370510    0.000000
 ---------------------------------------------------------------------
 Rotational constants (GHZ):     10.2290317      4.9290233      3.3959236
 Standard basis: 6-311+G(2d,p) (5D, 7F)
 There are   101 symmetry adapted cartesian basis functions of A'  symmetry.
 There are    41 symmetry adapted cartesian basis functions of A"  symmetry.
 There are    93 symmetry adapted basis functions of A'  symmetry.
 There are    41 symmetry adapted basis functions of A"  symmetry.
   134 basis functions,   209 primitive gaussians,   142 cartesian basis functions
    20 alpha electrons       20 beta electrons
       nuclear repulsion energy       149.1648319887 Hartrees.
 NAtoms=    7 NActive=    7 NUniq=    6 SFac= 1.36D+00 NAtFMM=   60 NAOKFM=F Big=F
 Integral buffers will be    262144 words long.
 Raffenetti 2 integral format.
 Two-electron integral symmetry is turned on.
 R6APFD:  NTU= -4 IXU= 1 FactS= 1.050
 Nuclear repulsion after empirical dispersion term =      149.1626329991 Hartrees.
 One-electron integrals computed using PRISM.
 NBasis=   134 RedAO= T EigKep=  2.02D-04  NBF=    93    41
 NBsUse=   134 1.00D-06 EigRej= -1.00D+00 NBFU=    93    41
 Initial guess from the checkpoint file:  "D:\mindmap\gaussian\calculate\opt_freq\ch3cocl\ch3cocl.chk"
 B after Tr=     0.000000    0.000000    0.000000
         Rot=    0.999996    0.000000    0.000000    0.002963 Ang=   0.34 deg.
 Initial guess orbital symmetries:
       Occupied  (A') (A') (A') (A') (A') (A') (A") (A') (A') (A')
                 (A') (A') (A') (A") (A') (A') (A") (A") (A') (A')
       Virtual   (A') (A') (A') (A') (A') (A') (A') (A') (A') (A')
                 (A') (A') (A') (A') (A') (A') (A') (A') (A') (A')
                 (A') (A') (A') (A') (A') (A') (A') (A') (A') (A')
                 (A') (A') (A') (A') (A') (A') (A') (A') (A') (A')
                 (A') (A') (A') (A') (A') (A') (A') (A') (A') (A')
                 (A') (A') (A') (A') (A') (A') (A') (A') (A') (A')
                 (A') (A') (A') (A') (A') (A') (A') (A') (A') (A')
                 (A') (A') (A') (A') (A') (A') (A') (A") (A") (A")
                 (A") (A") (A") (A") (A") (A") (A") (A") (A") (A")
                 (A") (A") (A") (A") (A") (A") (A") (A") (A") (A")
                 (A") (A") (A") (A") (A") (A") (A") (A") (A") (A")
                 (A") (A") (A") (A")
 ExpMin= 4.38D-02 ExpMax= 1.06D+05 ExpMxC= 3.62D+03 IAcc=2 IRadAn=         4 AccDes= 0.00D+00
 Harris functional with IExCor= 3731 and IRadAn=       4 diagonalized for initial guess.
 HarFok:  IExCor= 3731 AccDes= 0.00D+00 IRadAn=         4 IDoV= 1 UseB2=F ITyADJ=14
 ICtDFT=  3500011 ScaDFX=  1.000000  1.000000  1.000000  1.000000
 FoFCou: FMM=F IPFlag=           0 FMFlag=      100000 FMFlg1=           0
         NFxFlg=           0 DoJE=T BraDBF=F KetDBF=T FulRan=T
         wScrn=  0.000000 ICntrl=     500 IOpCl=  0 I1Cent=   200000004 NGrid=           0
         NMat0=    1 NMatS0=      1 NMatT0=    0 NMatD0=    1 NMtDS0=    0 NMtDT0=    0
 Petite list used in FoFCou.
 Keep R1 ints in memory in symmetry-blocked form, NReq=61962477.
 Requested convergence on RMS density matrix=1.00D-08 within 128 cycles.
 Requested convergence on MAX density matrix=1.00D-06.
 Requested convergence on             energy=1.00D-06.
 No special actions if energy rises.
 SCF Done:  E(RAPFD) =  -613.282170712     A.U. after   10 cycles
            NFock= 10  Conv=0.39D-08     -V/T= 2.0025
 R6APFD:  NTU= -4 IXU= 1 FactS= 1.050
 Calling FoFJK, ICntrl=      2127 FMM=F ISym2X=1 I1Cent= 0 IOpClX= 0 NMat=1 NMatS=1 NMatT=0.
 ***** Axes restored to original set *****
 -------------------------------------------------------------------
 Center     Atomic                   Forces (Hartrees/Bohr)
 Number     Number              X              Y              Z
 -------------------------------------------------------------------
      1        6          -0.002107483    0.002441464    0.000000000
      2       17          -0.000360780   -0.002381296    0.000000000
      3        6          -0.001633623    0.000626135    0.000000000
      4        1           0.000740512    0.000025194    0.000416265
      5        1           0.000740512    0.000025194   -0.000416265
      6        1          -0.000317160   -0.000395000    0.000000000
      7        8           0.002938021   -0.000341692    0.000000000
 -------------------------------------------------------------------
 Cartesian Forces:  Max     0.002938021 RMS     0.001189510

 GradGradGradGradGradGradGradGradGradGradGradGradGradGradGradGradGradGrad
 Berny optimization.
 Using GEDIIS/GDIIS optimizer.
 FormGI is forming the generalized inverse of G from B-inverse, IUseBI=4.
 Internal  Forces:  Max     0.002780180 RMS     0.000934216
 Search for a local minimum.
 Step number   4 out of a maximum of   31
 All quantities printed in internal units (Hartrees-Bohrs-Radians)
 Mixed Optimization -- En-DIIS/RFO-DIIS
 Update second derivatives using D2CorX and points    1    2    3    4
 DE= -3.20D-04 DEPred=-2.61D-04 R= 1.23D+00
 TightC=F SS=  1.41D+00  RLast= 5.90D-02 DXNew= 8.4853D-01 1.7709D-01
 Trust test= 1.23D+00 RLast= 5.90D-02 DXMaxT set to 5.05D-01
 ITU=  1  1  1  0
 Use linear search instead of GDIIS.
     Eigenvalues ---    0.00237   0.00237   0.07149   0.07165   0.11532
     Eigenvalues ---    0.16000   0.16361   0.16680   0.26129   0.27439
     Eigenvalues ---    0.29813   0.37238   0.37263   0.38202   0.86664
 RFO step:  Lambda=-3.01139431D-05 EMin= 2.36824361D-03
 Quartic linear search produced a step of  0.29990.
 Iteration  1 RMS(Cart)=  0.00544652 RMS(Int)=  0.00002036
 Iteration  2 RMS(Cart)=  0.00001919 RMS(Int)=  0.00000459
 Iteration  3 RMS(Cart)=  0.00000000 RMS(Int)=  0.00000459
 ClnCor:  largest displacement from symmetrization is 9.45D-10 for atom     6.
 Variable       Old X    -DE/DX   Delta X   Delta X   Delta X     New X
                                 (Linear)    (Quad)   (Total)
    R1        3.40819   0.00238   0.01201   0.00311   0.01512   3.42331
    R2        2.82533   0.00054  -0.00168   0.00244   0.00076   2.82610
    R3        2.22768   0.00278  -0.00052   0.00193   0.00140   2.22909
    R4        2.06580  -0.00076   0.00003  -0.00191  -0.00188   2.06392
    R5        2.06580  -0.00076   0.00003  -0.00191  -0.00188   2.06392
    R6        2.06003  -0.00048   0.00030  -0.00121  -0.00091   2.05912
    A1        1.95076   0.00008  -0.00832   0.00399  -0.00433   1.94643
    A2        2.10624  -0.00117  -0.00020  -0.00531  -0.00551   2.10073
    A3        2.22619   0.00108   0.00852   0.00132   0.00984   2.23603
    A4        1.91437  -0.00043  -0.00085  -0.00261  -0.00346   1.91091
    A5        1.91437  -0.00043  -0.00085  -0.00261  -0.00346   1.91091
    A6        1.90702   0.00036   0.00281   0.00108   0.00389   1.91091
    A7        1.86980   0.00045  -0.00188   0.00416   0.00226   1.87206
    A8        1.92901   0.00002   0.00033  -0.00003   0.00030   1.92931
    A9        1.92901   0.00002   0.00033  -0.00003   0.00030   1.92931
    D1       -1.02455  -0.00002   0.00165  -0.00099   0.00065  -1.02389
    D2        1.02455   0.00002  -0.00165   0.00099  -0.00065   1.02389
    D3        3.14159   0.00000   0.00000   0.00000   0.00000   3.14159
    D4        2.11705  -0.00002   0.00165  -0.00099   0.00065   2.11770
    D5       -2.11705   0.00002  -0.00165   0.00099  -0.00065  -2.11770
    D6        0.00000   0.00000   0.00000   0.00000   0.00000   0.00000
         Item               Value     Threshold  Converged?
 Maximum Force            0.002780     0.000002     NO 
 RMS     Force            0.000934     0.000001     NO 
 Maximum Displacement     0.012934     0.000006     NO 
 RMS     Displacement     0.005445     0.000004     NO 
 Predicted change in Energy=-3.246534D-05
 GradGradGradGradGradGradGradGradGradGradGradGradGradGradGradGradGradGrad

                          Input orientation:                          
 ---------------------------------------------------------------------
 Center     Atomic      Atomic             Coordinates (Angstroms)
 Number     Number       Type             X           Y           Z
 ---------------------------------------------------------------------
      1          6           0        0.257112    0.487025    0.000000
      2         17           0       -0.287359   -1.240755    0.000000
      3          6           0       -0.904896    1.428447    0.000000
      4          1           0       -1.525057    1.241763   -0.879433
      5          1           0       -1.525057    1.241763    0.879433
      6          1           0       -0.540700    2.455422    0.000000
      7          8           0        1.407053    0.749800    0.000000
 ---------------------------------------------------------------------
                    Distance matrix (angstroms):
                    1          2          3          4          5
     1  C    0.000000
     2  Cl   1.811538   0.000000
     3  C    1.495506   2.739706   0.000000
     4  H    2.125832   2.910016   1.092178   0.000000
     5  H    2.125832   2.910016   1.092178   1.758866   0.000000
     6  H    2.123933   3.704849   1.089641   1.793134   1.793134
     7  O    1.179582   2.614066   2.409496   3.100435   3.100435
                    6          7
     6  H    0.000000
     7  O    2.588994   0.000000
 Stoichiometry    C2H3ClO
 Framework group  CS[SG(C2HClO),X(H2)]
 Deg. of freedom    10
 Full point group                 CS      NOp   2
 Largest Abelian subgroup         CS      NOp   2
 Largest concise Abelian subgroup CS      NOp   2
                         Standard orientation:                         
 ---------------------------------------------------------------------
 Center     Atomic      Atomic             Coordinates (Angstroms)
 Number     Number       Type             X           Y           Z
 ---------------------------------------------------------------------
      1          6           0        0.000000    0.535572    0.000000
      2         17           0       -0.457544   -1.217233    0.000000
      3          6           0        1.484698    0.715042    0.000000
      4          1           0        1.910669    0.227190    0.879433
      5          1           0        1.910669    0.227190   -0.879433
      6          1           0        1.722300    1.778462    0.000000
      7          8           0       -0.834198    1.369555    0.000000
 ---------------------------------------------------------------------
 Rotational constants (GHZ):     10.1779880      4.9163044      3.3842459
 Standard basis: 6-311+G(2d,p) (5D, 7F)
 There are   101 symmetry adapted cartesian basis functions of A'  symmetry.
 There are    41 symmetry adapted cartesian basis functions of A"  symmetry.
 There are    93 symmetry adapted basis functions of A'  symmetry.
 There are    41 symmetry adapted basis functions of A"  symmetry.
   134 basis functions,   209 primitive gaussians,   142 cartesian basis functions
    20 alpha electrons       20 beta electrons
       nuclear repulsion energy       148.9200832459 Hartrees.
 NAtoms=    7 NActive=    7 NUniq=    6 SFac= 1.36D+00 NAtFMM=   60 NAOKFM=F Big=F
 Integral buffers will be    262144 words long.
 Raffenetti 2 integral format.
 Two-electron integral symmetry is turned on.
 R6APFD:  NTU= -4 IXU= 1 FactS= 1.050
 Nuclear repulsion after empirical dispersion term =      148.9178534986 Hartrees.
 One-electron integrals computed using PRISM.
 NBasis=   134 RedAO= T EigKep=  2.02D-04  NBF=    93    41
 NBsUse=   134 1.00D-06 EigRej= -1.00D+00 NBFU=    93    41
 Initial guess from the checkpoint file:  "D:\mindmap\gaussian\calculate\opt_freq\ch3cocl\ch3cocl.chk"
 B after Tr=     0.000000    0.000000    0.000000
         Rot=    0.999999    0.000000    0.000000   -0.001433 Ang=  -0.16 deg.
 Initial guess orbital symmetries:
       Occupied  (A') (A') (A') (A') (A') (A') (A") (A') (A') (A')
                 (A') (A') (A') (A") (A') (A') (A") (A") (A') (A')
       Virtual   (A') (A') (A') (A') (A') (A') (A') (A') (A') (A')
                 (A') (A') (A') (A') (A') (A') (A') (A') (A') (A')
                 (A') (A') (A') (A') (A') (A') (A') (A') (A') (A')
                 (A') (A') (A') (A') (A') (A') (A') (A') (A') (A')
                 (A') (A') (A') (A') (A') (A') (A') (A') (A') (A')
                 (A') (A') (A') (A') (A') (A') (A') (A') (A') (A')
                 (A') (A') (A') (A') (A') (A') (A') (A') (A') (A')
                 (A') (A') (A') (A') (A') (A') (A') (A") (A") (A")
                 (A") (A") (A") (A") (A") (A") (A") (A") (A") (A")
                 (A") (A") (A") (A") (A") (A") (A") (A") (A") (A")
                 (A") (A") (A") (A") (A") (A") (A") (A") (A") (A")
                 (A") (A") (A") (A")
 Keep R1 ints in memory in symmetry-blocked form, NReq=61962477.
 Requested convergence on RMS density matrix=1.00D-08 within 128 cycles.
 Requested convergence on MAX density matrix=1.00D-06.
 Requested convergence on             energy=1.00D-06.
 No special actions if energy rises.
 SCF Done:  E(RAPFD) =  -613.282210002     A.U. after    9 cycles
            NFock=  9  Conv=0.52D-08     -V/T= 2.0025
 R6APFD:  NTU= -4 IXU= 1 FactS= 1.050
 Calling FoFJK, ICntrl=      2127 FMM=F ISym2X=1 I1Cent= 0 IOpClX= 0 NMat=1 NMatS=1 NMatT=0.
 ***** Axes restored to original set *****
 -------------------------------------------------------------------
 Center     Atomic                   Forces (Hartrees/Bohr)
 Number     Number              X              Y              Z
 -------------------------------------------------------------------
      1        6          -0.000159379    0.000422760    0.000000000
      2       17           0.000064670   -0.000608289    0.000000000
      3        6          -0.000575797    0.000424855    0.000000000
      4        1           0.000237842    0.000004831    0.000028435
      5        1           0.000237842    0.000004831   -0.000028435
      6        1           0.000050189   -0.000161500    0.000000000
      7        8           0.000144632   -0.000087487    0.000000000
 -------------------------------------------------------------------
 Cartesian Forces:  Max     0.000608289 RMS     0.000245177

 GradGradGradGradGradGradGradGradGradGradGradGradGradGradGradGradGradGrad
 Berny optimization.
 Using GEDIIS/GDIIS optimizer.
 FormGI is forming the generalized inverse of G from B-inverse, IUseBI=4.
 Internal  Forces:  Max     0.000561093 RMS     0.000210665
 Search for a local minimum.
 Step number   5 out of a maximum of   31
 All quantities printed in internal units (Hartrees-Bohrs-Radians)
 Mixed Optimization -- En-DIIS/RFO-DIIS
 Swapping is turned off.
 Update second derivatives using D2CorX and points    1    2    3    4    5
 DE= -3.93D-05 DEPred=-3.25D-05 R= 1.21D+00
 TightC=F SS=  1.41D+00  RLast= 2.08D-02 DXNew= 8.4853D-01 6.2297D-02
 Trust test= 1.21D+00 RLast= 2.08D-02 DXMaxT set to 5.05D-01
 ITU=  1  1  1  1  0
     Eigenvalues ---    0.00237   0.00237   0.07154   0.07312   0.10476
     Eigenvalues ---    0.16000   0.16338   0.16592   0.24309   0.27465
     Eigenvalues ---    0.29819   0.37222   0.37263   0.37570   0.85034
 En-DIIS/RFO-DIIS IScMMF=        0 using points:     5    4
 RFO step:  Lambda=-2.03867135D-06.
 DidBck=F Rises=F RFO-DIIS coefs:    1.16600   -0.16600
 Iteration  1 RMS(Cart)=  0.00124511 RMS(Int)=  0.00000105
 Iteration  2 RMS(Cart)=  0.00000108 RMS(Int)=  0.00000043
 Iteration  3 RMS(Cart)=  0.00000000 RMS(Int)=  0.00000043
 ClnCor:  largest displacement from symmetrization is 6.19D-11 for atom     6.
 Variable       Old X    -DE/DX   Delta X   Delta X   Delta X     New X
                                 (Linear)    (Quad)   (Total)
    R1        3.42331   0.00056   0.00251   0.00089   0.00340   3.42671
    R2        2.82610   0.00021   0.00013   0.00060   0.00073   2.82683
    R3        2.22909   0.00012   0.00023  -0.00016   0.00008   2.22917
    R4        2.06392  -0.00016  -0.00031  -0.00021  -0.00053   2.06339
    R5        2.06392  -0.00016  -0.00031  -0.00021  -0.00053   2.06339
    R6        2.05912  -0.00014  -0.00015  -0.00025  -0.00040   2.05872
    A1        1.94643   0.00047  -0.00072   0.00217   0.00145   1.94788
    A2        2.10073  -0.00037  -0.00091  -0.00097  -0.00188   2.09885
    A3        2.23603  -0.00010   0.00163  -0.00120   0.00043   2.23646
    A4        1.91091  -0.00013  -0.00057  -0.00039  -0.00096   1.90995
    A5        1.91091  -0.00013  -0.00057  -0.00039  -0.00096   1.90995
    A6        1.91091  -0.00012   0.00065  -0.00153  -0.00089   1.91002
    A7        1.87206   0.00022   0.00038   0.00178   0.00215   1.87421
    A8        1.92931   0.00008   0.00005   0.00029   0.00034   1.92965
    A9        1.92931   0.00008   0.00005   0.00029   0.00034   1.92965
    D1       -1.02389  -0.00006   0.00011  -0.00085  -0.00074  -1.02463
    D2        1.02389   0.00006  -0.00011   0.00085   0.00074   1.02463
    D3        3.14159   0.00000   0.00000   0.00000   0.00000   3.14159
    D4        2.11770  -0.00006   0.00011  -0.00085  -0.00074   2.11696
    D5       -2.11770   0.00006  -0.00011   0.00085   0.00074  -2.11696
    D6        0.00000   0.00000   0.00000   0.00000   0.00000   0.00000
         Item               Value     Threshold  Converged?
 Maximum Force            0.000561     0.000002     NO 
 RMS     Force            0.000211     0.000001     NO 
 Maximum Displacement     0.003961     0.000006     NO 
 RMS     Displacement     0.001245     0.000004     NO 
 Predicted change in Energy=-2.340483D-06
 GradGradGradGradGradGradGradGradGradGradGradGradGradGradGradGradGradGrad

                          Input orientation:                          
 ---------------------------------------------------------------------
 Center     Atomic      Atomic             Coordinates (Angstroms)
 Number     Number       Type             X           Y           Z
 ---------------------------------------------------------------------
      1          6           0        0.256467    0.487375    0.000000
      2         17           0       -0.286222   -1.242851    0.000000
      3          6           0       -0.905743    1.429163    0.000000
      4          1           0       -1.524699    1.242332   -0.879904
      5          1           0       -1.524699    1.242332    0.879904
      6          1           0       -0.540598    2.455574    0.000000
      7          8           0        1.406590    0.749539    0.000000
 ---------------------------------------------------------------------
                    Distance matrix (angstroms):
                    1          2          3          4          5
     1  C    0.000000
     2  Cl   1.813338   0.000000
     3  C    1.495893   2.742894   0.000000
     4  H    2.125263   2.912764   1.091900   0.000000
     5  H    2.125263   2.912764   1.091900   1.759808   0.000000
     6  H    2.123468   3.707163   1.089426   1.792943   1.792943
     7  O    1.179624   2.614427   2.410139   3.099924   3.099924
                    6          7
     6  H    0.000000
     7  O    2.588840   0.000000
 Stoichiometry    C2H3ClO
 Framework group  CS[SG(C2HClO),X(H2)]
 Deg. of freedom    10
 Full point group                 CS      NOp   2
 Largest Abelian subgroup         CS      NOp   2
 Largest concise Abelian subgroup CS      NOp   2
                         Standard orientation:                         
 ---------------------------------------------------------------------
 Center     Atomic      Atomic             Coordinates (Angstroms)
 Number     Number       Type             X           Y           Z
 ---------------------------------------------------------------------
      1          6           0        0.000000    0.536063    0.000000
      2         17           0       -0.456130   -1.218969    0.000000
      3          6           0        1.484627    0.719311    0.000000
      4          1           0        1.910671    0.232999    0.879904
      5          1           0        1.910671    0.232999   -0.879904
      6          1           0        1.718563    1.783324    0.000000
      7          8           0       -0.836682    1.367613    0.000000
 ---------------------------------------------------------------------
 Rotational constants (GHZ):     10.1773483      4.9081550      3.3803873
 Standard basis: 6-311+G(2d,p) (5D, 7F)
 There are   101 symmetry adapted cartesian basis functions of A'  symmetry.
 There are    41 symmetry adapted cartesian basis functions of A"  symmetry.
 There are    93 symmetry adapted basis functions of A'  symmetry.
 There are    41 symmetry adapted basis functions of A"  symmetry.
   134 basis functions,   209 primitive gaussians,   142 cartesian basis functions
    20 alpha electrons       20 beta electrons
       nuclear repulsion energy       148.8532384541 Hartrees.
 NAtoms=    7 NActive=    7 NUniq=    6 SFac= 1.36D+00 NAtFMM=   60 NAOKFM=F Big=F
 Integral buffers will be    262144 words long.
 Raffenetti 2 integral format.
 Two-electron integral symmetry is turned on.
 R6APFD:  NTU= -4 IXU= 1 FactS= 1.050
 Nuclear repulsion after empirical dispersion term =      148.8510022845 Hartrees.
 One-electron integrals computed using PRISM.
 NBasis=   134 RedAO= T EigKep=  2.02D-04  NBF=    93    41
 NBsUse=   134 1.00D-06 EigRej= -1.00D+00 NBFU=    93    41
 Initial guess from the checkpoint file:  "D:\mindmap\gaussian\calculate\opt_freq\ch3cocl\ch3cocl.chk"
 B after Tr=     0.000000    0.000000    0.000000
         Rot=    1.000000    0.000000    0.000000   -0.000979 Ang=  -0.11 deg.
 Initial guess orbital symmetries:
       Occupied  (A') (A') (A') (A') (A') (A') (A") (A') (A') (A')
                 (A') (A') (A') (A') (A") (A') (A") (A") (A') (A')
       Virtual   (A') (A') (A') (A') (A') (A') (A') (A') (A') (A')
                 (A') (A') (A') (A') (A') (A') (A') (A') (A') (A')
                 (A') (A') (A') (A') (A') (A') (A') (A') (A') (A')
                 (A') (A') (A') (A') (A') (A') (A') (A') (A') (A')
                 (A') (A') (A') (A') (A') (A') (A') (A') (A') (A')
                 (A') (A') (A') (A') (A') (A') (A') (A') (A') (A')
                 (A') (A') (A') (A') (A') (A') (A') (A') (A') (A')
                 (A') (A') (A') (A') (A') (A') (A') (A") (A") (A")
                 (A") (A") (A") (A") (A") (A") (A") (A") (A") (A")
                 (A") (A") (A") (A") (A") (A") (A") (A") (A") (A")
                 (A") (A") (A") (A") (A") (A") (A") (A") (A") (A")
                 (A") (A") (A") (A")
 Keep R1 ints in memory in symmetry-blocked form, NReq=61962477.
 Requested convergence on RMS density matrix=1.00D-08 within 128 cycles.
 Requested convergence on MAX density matrix=1.00D-06.
 Requested convergence on             energy=1.00D-06.
 No special actions if energy rises.
 SCF Done:  E(RAPFD) =  -613.282213585     A.U. after    8 cycles
            NFock=  8  Conv=0.86D-08     -V/T= 2.0025
 R6APFD:  NTU= -4 IXU= 1 FactS= 1.050
 Calling FoFJK, ICntrl=      2127 FMM=F ISym2X=1 I1Cent= 0 IOpClX= 0 NMat=1 NMatS=1 NMatT=0.
 ***** Axes restored to original set *****
 -------------------------------------------------------------------
 Center     Atomic                   Forces (Hartrees/Bohr)
 Number     Number              X              Y              Z
 -------------------------------------------------------------------
      1        6           0.000152777    0.000061302    0.000000000
      2       17           0.000031251   -0.000175675    0.000000000
      3        6          -0.000138616    0.000146230    0.000000000
      4        1           0.000023743   -0.000001714   -0.000015476
      5        1           0.000023743   -0.000001714    0.000015476
      6        1           0.000063760   -0.000022131    0.000000000
      7        8          -0.000156659   -0.000006299    0.000000000
 -------------------------------------------------------------------
 Cartesian Forces:  Max     0.000175675 RMS     0.000078765

 GradGradGradGradGradGradGradGradGradGradGradGradGradGradGradGradGradGrad
 Berny optimization.
 Using GEDIIS/GDIIS optimizer.
 FormGI is forming the generalized inverse of G from B-inverse, IUseBI=4.
 Internal  Forces:  Max     0.000206948 RMS     0.000081866
 Search for a local minimum.
 Step number   6 out of a maximum of   31
 All quantities printed in internal units (Hartrees-Bohrs-Radians)
 Mixed Optimization -- En-DIIS/RFO-DIIS
 Swapping is turned off.
 Update second derivatives using D2CorX and points    1    2    3    4    5
                                                      6
 DE= -3.58D-06 DEPred=-2.34D-06 R= 1.53D+00
 TightC=F SS=  1.41D+00  RLast= 5.32D-03 DXNew= 8.4853D-01 1.5975D-02
 Trust test= 1.53D+00 RLast= 5.32D-03 DXMaxT set to 5.05D-01
 ITU=  1  1  1  1  1  0
     Eigenvalues ---    0.00237   0.00237   0.06963   0.07167   0.10567
     Eigenvalues ---    0.14233   0.16000   0.16691   0.20515   0.27479
     Eigenvalues ---    0.29622   0.37250   0.37263   0.38200   0.92912
 En-DIIS/RFO-DIIS IScMMF=        0 using points:     6    5    4
 RFO step:  Lambda=-3.15752700D-07.
 DidBck=F Rises=F RFO-DIIS coefs:    1.60573   -0.69604    0.09031
 Iteration  1 RMS(Cart)=  0.00103990 RMS(Int)=  0.00000080
 Iteration  2 RMS(Cart)=  0.00000061 RMS(Int)=  0.00000051
 ClnCor:  largest displacement from symmetrization is 1.46D-12 for atom     5.
 Variable       Old X    -DE/DX   Delta X   Delta X   Delta X     New X
                                 (Linear)    (Quad)   (Total)
    R1        3.42671   0.00016   0.00069   0.00046   0.00116   3.42787
    R2        2.82683   0.00010   0.00037   0.00020   0.00058   2.82740
    R3        2.22917  -0.00015  -0.00008  -0.00011  -0.00019   2.22898
    R4        2.06339   0.00000  -0.00015   0.00009  -0.00006   2.06334
    R5        2.06339   0.00000  -0.00015   0.00009  -0.00006   2.06334
    R6        2.05872   0.00000  -0.00016   0.00013  -0.00003   2.05869
    A1        1.94788   0.00021   0.00127   0.00002   0.00129   1.94917
    A2        2.09885  -0.00007  -0.00064   0.00005  -0.00059   2.09826
    A3        2.23646  -0.00013  -0.00063  -0.00007  -0.00070   2.23576
    A4        1.90995   0.00000  -0.00027   0.00023  -0.00005   1.90990
    A5        1.90995   0.00000  -0.00027   0.00023  -0.00005   1.90990
    A6        1.91002  -0.00010  -0.00089  -0.00024  -0.00113   1.90889
    A7        1.87421   0.00004   0.00110  -0.00034   0.00076   1.87497
    A8        1.92965   0.00004   0.00018   0.00007   0.00025   1.92990
    A9        1.92965   0.00004   0.00018   0.00007   0.00025   1.92990
    D1       -1.02463  -0.00002  -0.00051   0.00007  -0.00043  -1.02507
    D2        1.02463   0.00002   0.00051  -0.00007   0.00043   1.02507
    D3        3.14159   0.00000   0.00000   0.00000   0.00000   3.14159
    D4        2.11696  -0.00002  -0.00051   0.00007  -0.00043   2.11653
    D5       -2.11696   0.00002   0.00051  -0.00007   0.00043  -2.11653
    D6        0.00000   0.00000   0.00000   0.00000   0.00000   0.00000
         Item               Value     Threshold  Converged?
 Maximum Force            0.000207     0.000002     NO 
 RMS     Force            0.000082     0.000001     NO 
 Maximum Displacement     0.002589     0.000006     NO 
 RMS     Displacement     0.001040     0.000004     NO 
 Predicted change in Energy=-3.862837D-07
 GradGradGradGradGradGradGradGradGradGradGradGradGradGradGradGradGradGrad

                          Input orientation:                          
 ---------------------------------------------------------------------
 Center     Atomic      Atomic             Coordinates (Angstroms)
 Number     Number       Type             X           Y           Z
 ---------------------------------------------------------------------
      1          6           0        0.256007    0.487164    0.000000
      2         17           0       -0.285027   -1.244221    0.000000
      3          6           0       -0.906227    1.429407    0.000000
      4          1           0       -1.524937    1.242980   -0.880127
      5          1           0       -1.524937    1.242980    0.880127
      6          1           0       -0.539691    2.455304    0.000000
      7          8           0        1.405909    0.749850    0.000000
 ---------------------------------------------------------------------
                    Distance matrix (angstroms):
                    1          2          3          4          5
     1  C    0.000000
     2  Cl   1.813950   0.000000
     3  C    1.496197   2.744845   0.000000
     4  H    2.125474   2.915162   1.091870   0.000000
     5  H    2.125474   2.915162   1.091870   1.760253   0.000000
     6  H    2.122901   3.708280   1.089410   1.793060   1.793060
     7  O    1.179525   2.614495   2.409931   3.099623   3.099623
                    6          7
     6  H    0.000000
     7  O    2.587264   0.000000
 Stoichiometry    C2H3ClO
 Framework group  CS[SG(C2HClO),X(H2)]
 Deg. of freedom    10
 Full point group                 CS      NOp   2
 Largest Abelian subgroup         CS      NOp   2
 Largest concise Abelian subgroup CS      NOp   2
                         Standard orientation:                         
 ---------------------------------------------------------------------
 Center     Atomic      Atomic             Coordinates (Angstroms)
 Number     Number       Type             X           Y           Z
 ---------------------------------------------------------------------
      1          6           0        0.000000    0.535929    0.000000
      2         17           0       -0.455716   -1.219843    0.000000
      3          6           0        1.484632    0.721606    0.000000
      4          1           0        1.911354    0.236358    0.880127
      5          1           0        1.911354    0.236358   -0.880127
      6          1           0        1.715642    1.786241    0.000000
      7          8           0       -0.837371    1.366646    0.000000
 ---------------------------------------------------------------------
 Rotational constants (GHZ):     10.1813485      4.9031606      3.3784937
 Standard basis: 6-311+G(2d,p) (5D, 7F)
 There are   101 symmetry adapted cartesian basis functions of A'  symmetry.
 There are    41 symmetry adapted cartesian basis functions of A"  symmetry.
 There are    93 symmetry adapted basis functions of A'  symmetry.
 There are    41 symmetry adapted basis functions of A"  symmetry.
   134 basis functions,   209 primitive gaussians,   142 cartesian basis functions
    20 alpha electrons       20 beta electrons
       nuclear repulsion energy       148.8242461419 Hartrees.
 NAtoms=    7 NActive=    7 NUniq=    6 SFac= 1.36D+00 NAtFMM=   60 NAOKFM=F Big=F
 Integral buffers will be    262144 words long.
 Raffenetti 2 integral format.
 Two-electron integral symmetry is turned on.
 R6APFD:  NTU= -4 IXU= 1 FactS= 1.050
 Nuclear repulsion after empirical dispersion term =      148.8220073832 Hartrees.
 One-electron integrals computed using PRISM.
 NBasis=   134 RedAO= T EigKep=  2.02D-04  NBF=    93    41
 NBsUse=   134 1.00D-06 EigRej= -1.00D+00 NBFU=    93    41
 Initial guess from the checkpoint file:  "D:\mindmap\gaussian\calculate\opt_freq\ch3cocl\ch3cocl.chk"
 B after Tr=     0.000000    0.000000    0.000000
         Rot=    1.000000    0.000000    0.000000   -0.000448 Ang=  -0.05 deg.
 Initial guess orbital symmetries:
       Occupied  (A') (A') (A') (A') (A') (A') (A") (A') (A') (A')
                 (A') (A') (A') (A") (A') (A') (A") (A") (A') (A')
       Virtual   (A') (A') (A') (A') (A') (A') (A') (A') (A') (A')
                 (A') (A') (A') (A') (A') (A') (A') (A') (A') (A')
                 (A') (A') (A') (A') (A') (A') (A') (A') (A') (A')
                 (A') (A') (A') (A') (A') (A') (A') (A') (A') (A')
                 (A') (A') (A') (A') (A') (A') (A') (A') (A') (A')
                 (A') (A') (A') (A') (A') (A') (A') (A') (A') (A')
                 (A') (A') (A') (A') (A') (A') (A') (A') (A') (A')
[...]
 Charge=              0.0000 electrons
 Dipole moment (field-independent basis, Debye):
    X=              2.8807    Y=              0.1911    Z=              0.0000  Tot=              2.8870
 Quadrupole moment (field-independent basis, Debye-Ang):
   XX=            -29.4352   YY=            -32.4541   ZZ=            -29.5654
   XY=              2.7612   XZ=              0.0000   YZ=              0.0000
 Traceless Quadrupole moment (field-independent basis, Debye-Ang):
   XX=              1.0497   YY=             -1.9692   ZZ=              0.9195
   XY=              2.7612   XZ=              0.0000   YZ=              0.0000
 Octapole moment (field-independent basis, Debye-Ang**2):
  XXX=              2.1621  YYY=             -3.2249  ZZZ=              0.0000  XYY=              2.0201
  XXY=              0.2249  XXZ=              0.0000  XZZ=              0.2185  YZZ=              0.7165
  YYZ=              0.0000  XYZ=              0.0000
 Hexadecapole moment (field-independent basis, Debye-Ang**3):
 XXXX=           -179.5165 YYYY=           -239.3322 ZZZZ=            -37.0212 XXXY=            -24.6289
 XXXZ=              0.0000 YYYX=            -15.8141 YYYZ=              0.0000 ZZZX=              0.0000
 ZZZY=              0.0000 XXYY=            -70.1204 XXZZ=            -33.7863 YYZZ=            -47.9369
 XXYZ=              0.0000 YYXZ=              0.0000 ZZXY=            -10.0228
 N-N= 1.488189439094D+02 E-N=-1.750233676792D+03  KE= 6.117412637948D+02
 Symmetry A'   KE= 5.602657200272D+02
 Symmetry A"   KE= 5.147554376763D+01
  Exact polarizability:  41.539   2.597  52.202   0.000   0.000  29.772
 Approx polarizability:  56.159  -1.870  81.801   0.000   0.000  43.375
 R6APFD:  NTU= -4 IXU= 1 FactS= 1.050
 Calling FoFJK, ICntrl=    100127 FMM=F ISym2X=1 I1Cent= 0 IOpClX= 0 NMat=1 NMatS=1 NMatT=0.
 Full mass-weighted force constant matrix:
 Low frequencies ---   -4.8228   -4.5850   -2.4147   -0.0032   -0.0023   -0.0023
 Low frequencies ---  138.3381  285.3121  443.5912
 Diagonal vibrational polarizability:
        3.9367381      18.8067867       0.4390612
 Harmonic frequencies (cm**-1), IR intensities (KM/Mole), Raman scattering
 activities (A**4/AMU), depolarization ratios for plane and unpolarized
 incident light, reduced masses (AMU), force constants (mDyne/A),
 and normal coordinates:
                      1                      2                      3
                     A"                     A'                     A'
 Frequencies --    138.3381               285.3121               443.5912
 Red. masses --      1.0545                 3.6743                16.4352
 Frc consts  --      0.0119                 0.1762                 1.9054
 IR Inten    --      0.0345                 6.6545                19.3100
  Atom  AN      X      Y      Z        X      Y      Z        X      Y      Z
     1   6     0.00   0.00   0.01    -0.13   0.06   0.00     0.16  -0.31   0.00
     2  17     0.00   0.00   0.02     0.15   0.08   0.00    -0.04   0.44   0.00
     3   6     0.00   0.00   0.01    -0.13  -0.30   0.00     0.20  -0.09   0.00
     4   1     0.11  -0.49  -0.32    -0.29  -0.46  -0.01     0.28  -0.02   0.00
     5   1    -0.11   0.49  -0.32    -0.29  -0.46   0.01     0.28  -0.02   0.00
     6   1     0.00   0.00   0.53     0.27  -0.39   0.00     0.08  -0.07   0.00
     7   8     0.00   0.00  -0.05    -0.11   0.08   0.00    -0.22  -0.65   0.00
                      4                      5                      6
                     A"                     A'                     A'
 Frequencies --    527.6685               582.0051               954.1079
 Red. masses --      2.8536                 4.2091                 2.5936
 Frc consts  --      0.4681                 0.8400                 1.3910
 IR Inten    --      1.3279               114.5316                68.9595
  Atom  AN      X      Y      Z        X      Y      Z        X      Y      Z
     1   6     0.00   0.00   0.37     0.08   0.30   0.00     0.21   0.11   0.00
     2  17     0.00   0.00  -0.04    -0.04  -0.08   0.00    -0.02   0.00   0.00
     3   6     0.00   0.00  -0.01     0.29   0.01   0.00    -0.22   0.11   0.00
     4   1     0.53   0.15  -0.19     0.04  -0.22  -0.01    -0.53  -0.30  -0.07
     5   1    -0.53  -0.15  -0.19     0.04  -0.22   0.01    -0.53  -0.30   0.07
     6   1     0.00   0.00  -0.40     0.80  -0.09   0.00     0.35  -0.03   0.00
     7   8     0.00   0.00  -0.14    -0.24  -0.04   0.00     0.09  -0.12   0.00
                      7                      8                      9
                     A"                     A'                     A'
 Frequencies --   1042.7992              1114.0429              1379.0844
 Red. masses --      1.6551                 2.0971                 1.2423
 Frc consts  --      1.0604                 1.5334                 1.3921
 IR Inten    --      3.5876               167.0723                26.7681
  Atom  AN      X      Y      Z        X      Y      Z        X      Y      Z
     1   6     0.00   0.00  -0.17    -0.16  -0.19   0.00    -0.02  -0.02   0.00
     2  17     0.00   0.00   0.01     0.00   0.01   0.00     0.00   0.00   0.00
     3   6     0.00   0.00   0.16     0.06   0.17   0.00     0.14   0.01   0.00
     4   1     0.61   0.01  -0.15    -0.15  -0.28  -0.13    -0.55  -0.10   0.26
     5   1    -0.61  -0.01  -0.15    -0.15  -0.28   0.13    -0.55  -0.10  -0.26
     6   1     0.00   0.00  -0.39     0.82   0.00   0.00    -0.46   0.14   0.00
     7   8     0.00   0.00   0.04     0.03   0.03   0.00     0.00   0.00   0.00
                     10                     11                     12
                     A'                     A"                     A'
 Frequencies --   1456.1726              1460.5903              1897.8417
 Red. masses --      1.0449                 1.0432                12.1641
 Frc consts  --      1.3054                 1.3113                25.8137
 IR Inten    --     13.7971                13.7456               344.7854
  Atom  AN      X      Y      Z        X      Y      Z        X      Y      Z
     1   6    -0.01   0.00   0.00     0.00   0.00  -0.02     0.62  -0.48   0.00
     2  17     0.00   0.00   0.00     0.00   0.00   0.00    -0.01  -0.01   0.00
     3   6    -0.02  -0.05   0.00     0.00   0.00  -0.05    -0.07   0.01   0.00
     4   1    -0.16   0.48   0.35     0.27   0.41   0.05    -0.15   0.04   0.08
     5   1    -0.16   0.48  -0.35    -0.27  -0.41   0.05    -0.15   0.04  -0.08
     6   1     0.47  -0.14   0.00     0.00   0.00   0.72     0.16  -0.06   0.00
     7   8     0.02  -0.01   0.00     0.00   0.00   0.00    -0.39   0.38   0.00
                     13                     14                     15
                     A'                     A"                     A'
 Frequencies --   3064.3136              3141.7767              3169.5446
 Red. masses --      1.0333                 1.0999                 1.1054
 Frc consts  --      5.7168                 6.3968                 6.5427
 IR Inten    --      0.3107                 0.0155                 4.2201
  Atom  AN      X      Y      Z        X      Y      Z        X      Y      Z
     1   6     0.00   0.00   0.00     0.00   0.00   0.00     0.00   0.00   0.00
     2  17     0.00   0.00   0.00     0.00   0.00   0.00     0.00   0.00   0.00
     3   6     0.05   0.00   0.00     0.00   0.00   0.09    -0.01   0.09   0.00
     4   1    -0.23   0.26  -0.49    -0.28   0.32  -0.56     0.14  -0.15   0.30
     5   1    -0.23   0.26   0.49     0.28  -0.32  -0.56     0.14  -0.15  -0.30
     6   1    -0.11  -0.52   0.00     0.00   0.00   0.01    -0.18  -0.83   0.00
     7   8     0.00   0.00   0.00     0.00   0.00   0.00     0.00   0.00   0.00

 -------------------
 - Thermochemistry -
 -------------------
 Temperature   298.150 Kelvin.  Pressure   1.00000 Atm.
 Atom     1 has atomic number  6 and mass  12.00000
 Atom     2 has atomic number 17 and mass  34.96885
 Atom     3 has atomic number  6 and mass  12.00000
 Atom     4 has atomic number  1 and mass   1.00783
 Atom     5 has atomic number  1 and mass   1.00783
 Atom     6 has atomic number  1 and mass   1.00783
 Atom     7 has atomic number  8 and mass  15.99491
 Molecular mass:    77.98724 amu.
 Principal axes and moments of inertia in atomic units:
                           1         2         3
     Eigenvalues --   177.24773 368.12185 534.21899
           X            0.35492   0.93490   0.00000
           Y            0.93490  -0.35492   0.00000
           Z            0.00000   0.00000   1.00000
 This molecule is an asymmetric top.
 Rotational symmetry number  1.
 Rotational temperatures (Kelvin)      0.48866     0.23529     0.16213
 Rotational constants (GHZ):          10.18203     4.90256     3.37828
 Zero-point vibrational energy     123557.4 (Joules/Mol)
                                   29.53093 (Kcal/Mol)
 Warning -- explicit consideration of   5 degrees of freedom as
           vibrations may cause significant error
 Vibrational temperatures:    199.04   410.50   638.23   759.20   837.37
          (Kelvin)           1372.75  1500.35  1602.86  1984.19  2095.10
                             2101.46  2730.57  4408.86  4520.31  4560.26
 
 Zero-point correction=                           0.047061 (Hartree/Particle)
 Thermal correction to Energy=                    0.051759
 Thermal correction to Enthalpy=                  0.052703
 Thermal correction to Gibbs Free Energy=         0.019181
 Sum of electronic and zero-point Energies=           -613.235154
 Sum of electronic and thermal Energies=              -613.230455
 Sum of electronic and thermal Enthalpies=            -613.229511
 Sum of electronic and thermal Free Energies=         -613.263033
 
                     E (Thermal)             CV                S
                      KCal/Mol        Cal/Mol-Kelvin    Cal/Mol-Kelvin
 Total                   32.479             14.547             70.553
 Electronic               0.000              0.000              0.000
 Translational            0.889              2.981             38.977
 Rotational               0.889              2.981             25.059
 Vibrational             30.702              8.586              6.518
 Vibration     1          0.614              1.915              2.827
 Vibration     2          0.683              1.701              1.502
 Vibration     3          0.803              1.375              0.815
 Vibration     4          0.883              1.189              0.592
 Vibration     5          0.939              1.070              0.482
                       Q            Log10(Q)             Ln(Q)
 Total Bot       0.150417D-08         -8.822702        -20.315023
 Total V=0       0.666188D+13         12.823597         29.527423
 Vib (Bot)       0.831409D-21        -21.080185        -48.538920
 Vib (Bot)    1  0.147050D+01          0.167465          0.385604
 Vib (Bot)    2  0.671962D+00         -0.172655         -0.397553
 Vib (Bot)    3  0.388592D+00         -0.410506         -0.945225
 Vib (Bot)    4  0.303744D+00         -0.517493         -1.191571
 Vib (Bot)    5  0.261297D+00         -0.582866         -1.342099
 Vib (V=0)       0.368226D+01          0.566114          1.303526
 Vib (V=0)    1  0.205318D+01          0.312427          0.719391
 Vib (V=0)    2  0.133758D+01          0.126318          0.290859
 Vib (V=0)    3  0.113325D+01          0.054325          0.125088
 Vib (V=0)    4  0.108503D+01          0.035442          0.081608
 Vib (V=0)    5  0.106416D+01          0.027007          0.062185
 Electronic      0.100000D+01          0.000000          0.000000
 Translational   0.270701D+08          7.432491         17.113942
 Rotational      0.668332D+05          4.824992         11.109955
 ***** Axes restored to original set *****
 -------------------------------------------------------------------
 Center     Atomic                   Forces (Hartrees/Bohr)
 Number     Number              X              Y              Z
 -------------------------------------------------------------------
      1        6          -0.000001665    0.000000514    0.000000000
      2       17           0.000000989   -0.000000163    0.000000000
      3        6           0.000000700    0.000000052    0.000000000
      4        1          -0.000000404   -0.000000511   -0.000000020
      5        1          -0.000000404   -0.000000511    0.000000020
      6        1          -0.000000819   -0.000000293    0.000000000
      7        8           0.000001604    0.000000913    0.000000000
 -------------------------------------------------------------------
 Cartesian Forces:  Max     0.000001665 RMS     0.000000674
 FormGI is forming the generalized inverse of G from B-inverse, IUseBI=4.

 GradGradGradGradGradGradGradGradGradGradGradGradGradGradGradGradGradGrad
 Berny optimization.
 Internal  Forces:  Max     0.000001528 RMS     0.000000369
 Search for a local minimum.
 Step number   1 out of a maximum of    2
 All quantities printed in internal units (Hartrees-Bohrs-Radians)
 Second derivative matrix not updated -- analytic derivatives used.
 ITU=  0
     Eigenvalues ---    0.00128   0.05054   0.05417   0.05591   0.10498
     Eigenvalues ---    0.11819   0.13142   0.13884   0.17949   0.23803
     Eigenvalues ---    0.28147   0.34398   0.34787   0.35140   0.95537
 Angle between quadratic step and forces=  54.40 degrees.
 Linear search not attempted -- first point.
 Iteration  1 RMS(Cart)=  0.00000100 RMS(Int)=  0.00000000
 Iteration  2 RMS(Cart)=  0.00000000 RMS(Int)=  0.00000000
 ClnCor:  largest displacement from symmetrization is 8.06D-13 for atom     5.
 Variable       Old X    -DE/DX   Delta X   Delta X   Delta X     New X
                                 (Linear)    (Quad)   (Total)
    R1        3.42797   0.00000   0.00000   0.00000   0.00000   3.42797
    R2        2.82745   0.00000   0.00000   0.00000   0.00000   2.82745
    R3        2.22896   0.00000   0.00000   0.00000   0.00000   2.22896
    R4        2.06336   0.00000   0.00000   0.00000   0.00000   2.06336
    R5        2.06336   0.00000   0.00000   0.00000   0.00000   2.06336
    R6        2.05870   0.00000   0.00000   0.00000   0.00000   2.05870
    A1        1.94931   0.00000   0.00000   0.00000   0.00000   1.94931
    A2        2.09827   0.00000   0.00000   0.00000   0.00000   2.09827
    A3        2.23561   0.00000   0.00000   0.00000   0.00000   2.23561
    A4        1.90997   0.00000   0.00000   0.00000   0.00000   1.90997
    A5        1.90997   0.00000   0.00000   0.00000   0.00000   1.90997
    A6        1.90880   0.00000   0.00000   0.00000   0.00000   1.90880
    A7        1.87483   0.00000   0.00000   0.00000   0.00000   1.87482
    A8        1.92995   0.00000   0.00000   0.00000   0.00000   1.92995
    A9        1.92995   0.00000   0.00000   0.00000   0.00000   1.92995
    D1       -1.02502   0.00000   0.00000   0.00000   0.00000  -1.02502
    D2        1.02502   0.00000   0.00000   0.00000   0.00000   1.02502
    D3        3.14159   0.00000   0.00000   0.00000   0.00000   3.14159
    D4        2.11657   0.00000   0.00000   0.00000   0.00000   2.11657
    D5       -2.11657   0.00000   0.00000   0.00000   0.00000  -2.11657
    D6        0.00000   0.00000   0.00000   0.00000   0.00000   0.00000
         Item               Value     Threshold  Converged?
 Maximum Force            0.000002     0.000002     NO 
 RMS     Force            0.000000     0.000001     YES
 Maximum Displacement     0.000002     0.000006     YES
 RMS     Displacement     0.000001     0.000004     YES
 Predicted change in Energy=-3.071677D-12
 GradGradGradGradGradGradGradGradGradGradGradGradGradGradGradGradGradGrad

 1|1|UNPC-DESKTOP-KC5UJLK|Freq|RAPFD|6-311+G(2d,p)|C2H3Cl1O1|23122|12-F
 eb-2022|0||#N Geom=AllCheck Guess=TCheck SCRF=Check GenChk RAPFD/6-311
 +G(2d,p) Freq||opt freq(GC)||0,1|C,0.2559821245,0.4871139857,0.|Cl,-0.
 2849033505,-1.2443724033,0.|C,-0.906225782,1.4294264964,0.|H,-1.525025
 2026,1.2430488225,-0.8800907423|H,-1.5250252026,1.2430488225,0.8800907
 423|H,-0.5395507559,2.4552797386,0.|O,1.4058444592,0.7499181775,0.||Ve
 rsion=IA32W-G09RevD.01|State=1-A'|HF=-613.2822144|RMSD=4.206e-009|RMSF
 =6.742e-007|ZeroPoint=0.0470605|Thermal=0.0517591|Dipole=-0.922475,0.6
 627173,0.|DipoleDeriv=1.4375775,0.7181052,0.,0.3082567,2.0182455,0.,0.
 ,0.,0.1611744,-0.2439861,-0.2420332,0.,-0.2750086,-1.1454618,0.,0.,0.,
 -0.1224219,-0.2438447,0.1040347,0.,0.132976,-0.1651615,0.,0.,0.,0.0311
 927,0.0846242,-0.0019148,-0.0270784,0.0093608,0.0475779,-0.0489245,-0.
 0525059,-0.0219519,0.0308513,0.0846242,-0.0019148,0.0270784,0.0093608,
 0.047578,0.0489245,0.0525059,0.0219519,0.0308513,0.0479645,-0.0108095,
 0.,-0.0048557,-0.0705886,0.,0.,0.,0.1075344,-1.1669597,-0.5654675,0.,-
 0.18009,-0.7321895,0.,0.,0.,-0.2391822|Polar=42.1860402,3.6366144,51.5
 552607,0.,0.,29.7717883|PG=CS [SG(C2H1Cl1O1),X(H2)]|NImag=0||1.0218154
 7,0.04124664,0.33965787,0.,0.,0.18740135,-0.02531908,0.00248556,0.,0.0
 4809750,0.03828939,-0.07586931,0.,0.03846393,0.12498570,0.,0.,-0.03630
 717,0.,0.,0.00913398,-0.13630267,0.06195924,0.,0.00648032,-0.01542712,
 0.,0.50473006,0.06955932,-0.13682942,0.,0.00668165,-0.00718174,0.,0.07
 591123,0.52947823,0.,0.,-0.08482262,0.,0.,0.00957135,0.,0.,0.53528615,
 -0.01979590,-0.00718386,-0.02267683,0.00110444,0.00017232,0.00164917,-
 0.12719112,-0.02605121,-0.12955772,0.14165906,0.01041395,0.00589622,0.
 02091911,-0.00038400,-0.00231134,-0.00094642,-0.02594258,-0.05528109,-
 0.03868131,0.02647792,0.05475415,0.00049824,-0.00054029,0.00101205,0.0
 0052963,0.00046338,0.00056155,-0.12815851,-0.03799498,-0.22028074,0.13
 805601,0.04181667,0.23832539,-0.01979590,-0.00718386,0.02267683,0.0011
 0444,0.00017232,-0.00164917,-0.12719112,-0.02605121,0.12955772,0.01145
 786,0.00275142,-0.01558199,0.14165906,0.01041395,0.00589622,-0.0209191
 1,-0.00038400,-0.00231134,0.00094642,-0.02594258,-0.05528109,0.0386813
 1,0.00275142,-0.00021084,-0.00418249,0.02647792,0.05475415,-0.00049824
 ,0.00054029,0.00101205,-0.00052963,-0.00046338,0.00056155,0.12815851,0
 .03799498,-0.22028074,0.01558199,0.00418249,-0.02034336,-0.13805601,-0
 .04181667,0.23832539,0.00803942,0.02491044,0.,-0.00103896,0.00536488,0
 .,-0.08180781,-0.09264242,0.,-0.00540632,-0.01543218,0.00264674,-0.005
 40632,-0.01543218,-0.00264674,0.08422075,-0.00903059,-0.02163211,0.,0.
 00229792,-0.00311351,0.,-0.08713364,-0.29146466,0.,-0.00016766,-0.0017
 5697,0.00038550,-0.00016766,-0.00175697,-0.00038550,0.09472217,0.31581
 276,0.,0.,-0.00197178,0.,0.,0.00193999,0.,0.,-0.04784709,-0.00661430,-
 0.02413731,0.00181384,0.00661430,0.02413731,0.00181384,0.,0.,0.0448943
 8,-0.82864134,-0.11623416,0.,-0.03042866,-0.06703572,0.,-0.03871767,-0
 .00740737,0.,-0.00182802,0.00211548,0.00200987,-0.00182802,0.00211548,
 -0.00200987,0.00139922,-0.00052056,0.,0.90004449,-0.16089267,-0.117119
 47,0.,-0.04916106,-0.03419845,0.,0.01657544,0.01655976,0.,0.00400107,-
 0.00109013,0.00005220,0.00400107,-0.00109013,-0.00005220,-0.00149070,0
 .00391146,0.,0.18696684,0.13302696,0.,0.,-0.06632389,0.,0.,0.01453874,
 0.,0.,0.02837368,0.00356168,-0.00315321,-0.00108875,-0.00356168,0.0031
 5321,-0.00108875,0.,0.,-0.00064318,0.,0.,0.02623215||0.00000166,-0.000
 00051,0.,-0.00000099,0.00000016,0.,-0.00000070,-0.00000005,0.,0.000000
 40,0.00000051,0.00000002,0.00000040,0.00000051,-0.00000002,0.00000082,
 0.00000029,0.,-0.00000160,-0.00000091,0.|||@


 THE FIRST AND LAST THING REQUIRED OF GENIUS IS THE LOVE OF TRUTH.

                          -- GOETHE
 Job cpu time:       0 days  0 hours  3 minutes 31.0 seconds.
 File lengths (MBytes):  RWF=     17 Int=      0 D2E=      0 Chk=      2 Scr=      1
 Normal termination of Gaussian 09 at Sat Feb 12 20:50:17 2022.
